
                                 *****************
                                 * O   R   C   A *
                                 *****************

                                            #,                                       
                                            ###                                      
                                            ####                                     
                                            #####                                    
                                            ######                                   
                                           ########,                                 
                                     ,,################,,,,,                         
                               ,,#################################,,                 
                          ,,##########################################,,             
                       ,#########################################, ''#####,          
                    ,#############################################,,   '####,        
                  ,##################################################,,,,####,       
                ,###########''''           ''''###############################       
              ,#####''   ,,,,##########,,,,          '''####'''          '####       
            ,##' ,,,,###########################,,,                        '##       
           ' ,,###''''                  '''############,,,                           
         ,,##''                                '''############,,,,        ,,,,,,###''
      ,#''                                            '''#######################'''  
     '                                                          ''''####''''         
             ,#######,   #######,   ,#######,      ##                                
            ,#'     '#,  ##    ##  ,#'     '#,    #''#        ######   ,####,        
            ##       ##  ##   ,#'  ##            #'  '#       #        #'  '#        
            ##       ##  #######   ##           ,######,      #####,   #    #        
            '#,     ,#'  ##    ##  '#,     ,#' ,#      #,         ##   #,  ,#        
             '#######'   ##     ##  '#######'  #'      '#     #####' # '####'        



                  #######################################################
                  #                        -***-                        #
                  #          Department of theory and spectroscopy      #
                  #    Directorship and core code : Frank Neese         #
                  #        Max Planck Institute fuer Kohlenforschung    #
                  #                Kaiser Wilhelm Platz 1               #
                  #                 D-45470 Muelheim/Ruhr               #
                  #                      Germany                        #
                  #                                                     #
                  #                  All rights reserved                #
                  #                        -***-                        #
                  #######################################################


                         Program Version 5.0.3 -  RELEASE  -


 With contributions from (in alphabetic order):
   Daniel Aravena         : Magnetic Suceptibility
   Michael Atanasov       : Ab Initio Ligand Field Theory (pilot matlab implementation)
   Alexander A. Auer      : GIAO ZORA, VPT2 properties, NMR spectrum
   Ute Becker             : Parallelization
   Giovanni Bistoni       : ED, misc. LED, open-shell LED, HFLD
   Martin Brehm           : Molecular dynamics
   Dmytro Bykov           : SCF Hessian
   Vijay G. Chilkuri      : MRCI spin determinant printing, contributions to CSF-ICE
   Dipayan Datta          : RHF DLPNO-CCSD density
   Achintya Kumar Dutta   : EOM-CC, STEOM-CC
   Dmitry Ganyushin       : Spin-Orbit,Spin-Spin,Magnetic field MRCI
   Miquel Garcia          : C-PCM and meta-GGA Hessian, CC/C-PCM, Gaussian charge scheme
   Yang Guo               : DLPNO-NEVPT2, F12-NEVPT2, CIM, IAO-localization
   Andreas Hansen         : Spin unrestricted coupled pair/coupled cluster methods
   Benjamin Helmich-Paris : MC-RPA, TRAH-SCF, COSX integrals
   Lee Huntington         : MR-EOM, pCC
   Robert Izsak           : Overlap fitted RIJCOSX, COSX-SCS-MP3, EOM
   Marcus Kettner         : VPT2
   Christian Kollmar      : KDIIS, OOCD, Brueckner-CCSD(T), CCSD density, CASPT2, CASPT2-K
   Simone Kossmann        : Meta GGA functionals, TD-DFT gradient, OOMP2, MP2 Hessian
   Martin Krupicka        : Initial AUTO-CI
   Lucas Lang             : DCDCAS
   Marvin Lechner         : AUTO-CI (C++ implementation), FIC-MRCC
   Dagmar Lenk            : GEPOL surface, SMD
   Dimitrios Liakos       : Extrapolation schemes; Compound Job, initial MDCI parallelization
   Dimitrios Manganas     : Further ROCIS development; embedding schemes
   Dimitrios Pantazis     : SARC Basis sets
   Anastasios Papadopoulos: AUTO-CI, single reference methods and gradients
   Taras Petrenko         : DFT Hessian,TD-DFT gradient, ASA, ECA, R-Raman, ABS, FL, XAS/XES, NRVS
   Peter Pinski           : DLPNO-MP2, DLPNO-MP2 Gradient
   Christoph Reimann      : Effective Core Potentials
   Marius Retegan         : Local ZFS, SOC
   Christoph Riplinger    : Optimizer, TS searches, QM/MM, DLPNO-CCSD(T), (RO)-DLPNO pert. Triples
   Tobias Risthaus        : Range-separated hybrids, TD-DFT gradient, RPA, STAB
   Michael Roemelt        : Original ROCIS implementation
   Masaaki Saitow         : Open-shell DLPNO-CCSD energy and density
   Barbara Sandhoefer     : DKH picture change effects
   Avijit Sen             : IP-ROCIS
   Kantharuban Sivalingam : CASSCF convergence, NEVPT2, FIC-MRCI
   Bernardo de Souza      : ESD, SOC TD-DFT
   Georgi Stoychev        : AutoAux, RI-MP2 NMR, DLPNO-MP2 response
   Willem Van den Heuvel  : Paramagnetic NMR
   Boris Wezisla          : Elementary symmetry handling
   Frank Wennmohs         : Technical directorship


 We gratefully acknowledge several colleagues who have allowed us to
 interface, adapt or use parts of their codes:
   Stefan Grimme, W. Hujo, H. Kruse, P. Pracht,  : VdW corrections, initial TS optimization,
                  C. Bannwarth, S. Ehlert          DFT functionals, gCP, sTDA/sTD-DF
   Ed Valeev, F. Pavosevic, A. Kumar             : LibInt (2-el integral package), F12 methods
   Garnet Chan, S. Sharma, J. Yang, R. Olivares  : DMRG
   Ulf Ekstrom                                   : XCFun DFT Library
   Mihaly Kallay                                 : mrcc  (arbitrary order and MRCC methods)
   Jiri Pittner, Ondrej Demel                    : Mk-CCSD
   Frank Weinhold                                : gennbo (NPA and NBO analysis)
   Christopher J. Cramer and Donald G. Truhlar   : smd solvation model
   Lars Goerigk                                  : TD-DFT with DH, B97 family of functionals
   V. Asgeirsson, H. Jonsson                     : NEB implementation
   FAccTs GmbH                                   : IRC, NEB, NEB-TS, DLPNO-Multilevel, CI-OPT
                                                   MM, QMMM, 2- and 3-layer-ONIOM, Crystal-QMMM,
                                                   LR-CPCM, SF, NACMEs, symmetry and pop. for TD-DFT,
                                                   nearIR, NL-DFT gradient (VV10), updates on ESD,
                                                   ML-optimized integration grids
   S Lehtola, MJT Oliveira, MAL Marques          : LibXC Library
   Liviu Ungur et al                             : ANISO software


 Your calculation uses the libint2 library for the computation of 2-el integrals
 For citations please refer to: http://libint.valeyev.net

 Your ORCA version has been built with support for libXC version: 5.1.0
 For citations please refer to: https://tddft.org/programs/libxc/

 This ORCA versions uses:
   CBLAS   interface :  Fast vector & matrix operations
   LAPACKE interface :  Fast linear algebra routines
   SCALAPACK package :  Parallel linear algebra routines
   Shared memory     :  Shared parallel matrices
   BLAS/LAPACK       :  OpenBLAS 0.3.15  USE64BITINT DYNAMIC_ARCH NO_AFFINITY SkylakeX SINGLE_THREADED
        Core in use  :  SkylakeX
   Copyright (c) 2011-2014, The OpenBLAS Project


================================================================================

----- Orbital basis set information -----
Your calculation utilizes the basis: cc-pVTZ 
       H, B-Ne : Obtained from the ccRepo (grant-hill.group.shef.ac.uk/ccrepo) Feb. 2017
                 T. H. Dunning, Jr., J. Chem. Phys. 90, 1007 (1989)
            He : Obtained from the ccRepo (grant-hill.group.shef.ac.uk/ccrepo) Feb. 2017
                 D. E. Woon, T. H. Dunning, Jr., J. Chem. Phys. 100, 2975 (1994)
  Li-Be, Na-Mg : Obtained from the ccRepo (grant-hill.group.shef.ac.uk/ccrepo) Feb. 2017
                 B. P. Prascher, D. E. Woon, K. A. Peterson, T. H. Dunning, Jr., A. K. Wilson, Theor. Chem. Acc. 128, 69 (2011)
         Al-Ar : Obtained from the ccRepo (grant-hill.group.shef.ac.uk/ccrepo) Feb. 2017
                 D. E. Woon, T. H. Dunning, Jr., J. Chem. Phys. 98, 1358 (1993)
            Ca : Obtained from the Peterson Research Group Website (tyr0.chem.wsu.edu/~kipeters) Feb. 2017
                 J. Koput, K. A. Peterson, J. Phys. Chem. 106, 9595 (2002)
         Sc-Zn : Obtained from the ccRepo (grant-hill.group.shef.ac.uk/ccrepo) Feb. 2017
                 N. B. Balabanov, K. A. Peterson, J. Chem. Phys. 123, 064107 (2005)
                 N. B. Balabanov, K. A. Peterson, J. Chem. Phys. 125, 074110 (2006)
         Ga-Kr : Obtained from the ccRepo (grant-hill.group.shef.ac.uk/ccrepo) Feb. 2017
                 A. K. Wilson, D. E. Woon, K. A. Peterson, T. H. Dunning, Jr., J. Chem. Phys. 110, 7667 (1999)
             Y : Obtained from the ccRepo (grant-hill.group.shef.ac.uk/ccrepo) Feb. 2017
                 K. A. Peterson, D. Figgen, M. Dolg, H. Stoll, J. Chem. Phys. 126, 124101 (2007)
        Ag, Au : Obtained from the Peterson Research Group Website (tyr0.chem.wsu.edu/~kipeters) Feb. 2017
                 K. A. Peterson, C. Puzzarini, Theor. Chem. Acc. 114, 283 (2005)

The basis set includes element-specific modifications.

----- AuxC basis set information -----
Your calculation utilizes the auxiliary basis: cc-pVTZ/C 
  Obtained from the EMSL Basis Set Exchange (bse.pnl.gov) Feb. 2017
  H-He, B-F, Al-Ar, Ga-Kr : F. Weigend, A. Kohn, C. Hattig, J. Chem. Phys. 116, 3175 (2002)
             Li-Be, Na-Mg : C. Haettig, Phys. Chem. Chem. Phys. 7, 59 (2005)
                       Ne : C. Haettig, Phys. Chem. Chem. Phys. 7, 59 (2005)
                            F. Weigend, A. Kohn, C. Hattig, J. Chem. Phys. 116, 3175 (2002)
                    Sc-Zn : J. G. Hill, J. A. Platts, J. Chem. Phys. 128, 044104 (2008)

The basis set includes element-specific modifications.

----- AuxJK basis set information -----
Your calculation utilizes the auxiliary basis: aug-cc-pVTZ/JK 
  H, B-F, Al-Cl, Ga-Br : Obtained from the TURBOMOLE 7.0 basis set library

The basis set includes element-specific modifications.

Your calculation utilizes the auxiliary basis: cc-pVTZ/JK 
  H, B-F, Al-Cl, Ga-Br : Obtained from the TURBOMOLE 7.0 basis set library

================================================================================
                                        WARNINGS
                       Please study these warnings very carefully!
================================================================================


WARNING: Post HF methods need fully converged wavefunctions
  ===> : Setting SCFConvForced true
         You can overwrite this default with %scf ConvForced false 


WARNING: MDCI localization with Augmented Hessian Foster-Boys
  ===> : Switching off randomization!

INFO   : the flag for use of the SHARK integral package has been found!

================================================================================
                                       INPUT FILE
================================================================================
NAME = coronene_dim_norm_dfavtz.inp
|  1> ! DLPNO-CCSD(T) cc-pVTZ cc-pVTZ/C RIJK aug-cc-pVTZ/JK VeryTightSCF
|  2> %PAL NPROCS 12 END
|  3> %basis
|  4>    AddGTO 6
|  5>      D   1
|  6>       1         0.1000000              1.0000000
|  7>      F   1
|  8>       1         0.2680000              1.0000000   
|  9>    end
| 10>    AddAuxCGTO 6
| 11>      D   1
| 12>       1         0.14890456005          1.0000000000
| 13>      F   1
| 14>       1         0.20179277037          1.0000000000
| 15>      G   1
| 16>       1         0.43599752945          1.0000000000
| 17>    end
| 18>    NewAuxJKGTO H "cc-pVTZ/JK" end
| 19> end
| 20> %scf
| 21>    MaxIter 2000
| 22> end
| 23> %mp2 MaxLocIter 800 end
| 24> #%mdci TCutPNO 1e-1 end
| 25> %maxcore 50000
| 26> 
| 27> 
| 28> * xyz 0 1
| 29> C   -1.487532 -1.231543 -1.729000
| 30> C   -0.065468 -1.231543 -1.729000
| 31> C    0.645564 0.000000 -1.729000
| 32> C   -0.065468 1.231543 -1.729000
| 33> C   -1.487532 1.231543 -1.729000
| 34> C   -2.198564 0.000000 -1.729000
| 35> C    0.642292 -2.457420 -1.729000
| 36> C   -0.093378 -3.670823 -1.729000
| 37> C   -1.459622 -3.670823 -1.729000
| 38> C   -2.195292 -2.457420 -1.729000
| 39> C   -3.614084 0.000000 -1.729000
| 40> C   -4.297087 -1.243810 -1.729000
| 41> C   -3.613965 -2.427013 -1.729000
| 42> C   -4.297087 1.243810 -1.729000
| 43> C   -3.613965 2.427013 -1.729000
| 44> C   -2.195292 2.457420 -1.729000
| 45> C   -1.459622 3.670823 -1.729000
| 46> C   -0.093378 3.670823 -1.729000
| 47> C    0.642292 2.457420 -1.729000
| 48> C    2.060965 2.427013 -1.729000
| 49> C    2.744087 1.243810 -1.729000
| 50> C    2.061084 0.000000 -1.729000
| 51> C    2.744087 -1.243810 -1.729000
| 52> C    2.060965 -2.427013 -1.729000
| 53> H    0.449580 -4.607417 -1.729000
| 54> H   -2.002581 -4.607417 -1.729000
| 55> H   -4.153600 -3.365525 -1.729000
| 56> H   -5.379680 -1.241892 -1.729000
| 57> H   -5.379680 1.241892 -1.729000
| 58> H   -4.153600 3.365525 -1.729000
| 59> H   -2.002581 4.607417 -1.729000
| 60> H    0.449580 4.607417 -1.729000
| 61> H    2.600600 3.365525 -1.729000
| 62> H    3.826680 1.241892 -1.729000
| 63> H    3.826680 -1.241892 -1.729000
| 64> H    2.600600 -3.365525 -1.729000
| 65> C    0.065468 -1.231543 1.729000
| 66> C    1.487532 -1.231543 1.729000
| 67> C    2.198564 0.000000 1.729000
| 68> C    1.487532 1.231543 1.729000
| 69> C    0.065468 1.231543 1.729000
| 70> C   -0.645564 0.000000 1.729000
| 71> C    2.195292 -2.457420 1.729000
| 72> C    1.459622 -3.670823 1.729000
| 73> C    0.093378 -3.670823 1.729000
| 74> C   -0.642292 -2.457420 1.729000
| 75> C   -2.061084 0.000000 1.729000
| 76> C   -2.744087 -1.243810 1.729000
| 77> C   -2.060965 -2.427013 1.729000
| 78> C   -2.744087 1.243810 1.729000
| 79> C   -2.060965 2.427013 1.729000
| 80> C   -0.642292 2.457420 1.729000
| 81> C    0.093378 3.670823 1.729000
| 82> C    1.459622 3.670823 1.729000
| 83> C    2.195292 2.457420 1.729000
| 84> C    3.613965 2.427013 1.729000
| 85> C    4.297087 1.243810 1.729000
| 86> C    3.614084 0.000000 1.729000
| 87> C    4.297087 -1.243810 1.729000
| 88> C    3.613965 -2.427013 1.729000
| 89> H    2.002581 -4.607417 1.729000
| 90> H   -0.449580 -4.607417 1.729000
| 91> H   -2.600600 -3.365525 1.729000
| 92> H   -3.826680 -1.241892 1.729000
| 93> H   -3.826680 1.241892 1.729000
| 94> H   -2.600600 3.365525 1.729000
| 95> H   -0.449580 4.607417 1.729000
| 96> H    2.002581 4.607417 1.729000
| 97> H    4.153600 3.365525 1.729000
| 98> H    5.379680 1.241892 1.729000
| 99> H    5.379680 -1.241892 1.729000
|100> H    4.153600 -3.365525 1.7290
|101> *
|102> 
|103> 
|104>                          ****END OF INPUT****
================================================================================

                       ****************************
                       * Single Point Calculation *
                       ****************************

---------------------------------
CARTESIAN COORDINATES (ANGSTROEM)
---------------------------------
  C     -1.487532   -1.231543   -1.729000
  C     -0.065468   -1.231543   -1.729000
  C      0.645564    0.000000   -1.729000
  C     -0.065468    1.231543   -1.729000
  C     -1.487532    1.231543   -1.729000
  C     -2.198564    0.000000   -1.729000
  C      0.642292   -2.457420   -1.729000
  C     -0.093378   -3.670823   -1.729000
  C     -1.459622   -3.670823   -1.729000
  C     -2.195292   -2.457420   -1.729000
  C     -3.614084    0.000000   -1.729000
  C     -4.297087   -1.243810   -1.729000
  C     -3.613965   -2.427013   -1.729000
  C     -4.297087    1.243810   -1.729000
  C     -3.613965    2.427013   -1.729000
  C     -2.195292    2.457420   -1.729000
  C     -1.459622    3.670823   -1.729000
  C     -0.093378    3.670823   -1.729000
  C      0.642292    2.457420   -1.729000
  C      2.060965    2.427013   -1.729000
  C      2.744087    1.243810   -1.729000
  C      2.061084    0.000000   -1.729000
  C      2.744087   -1.243810   -1.729000
  C      2.060965   -2.427013   -1.729000
  H      0.449580   -4.607417   -1.729000
  H     -2.002581   -4.607417   -1.729000
  H     -4.153600   -3.365525   -1.729000
  H     -5.379680   -1.241892   -1.729000
  H     -5.379680    1.241892   -1.729000
  H     -4.153600    3.365525   -1.729000
  H     -2.002581    4.607417   -1.729000
  H      0.449580    4.607417   -1.729000
  H      2.600600    3.365525   -1.729000
  H      3.826680    1.241892   -1.729000
  H      3.826680   -1.241892   -1.729000
  H      2.600600   -3.365525   -1.729000
  C      0.065468   -1.231543    1.729000
  C      1.487532   -1.231543    1.729000
  C      2.198564    0.000000    1.729000
  C      1.487532    1.231543    1.729000
  C      0.065468    1.231543    1.729000
  C     -0.645564    0.000000    1.729000
  C      2.195292   -2.457420    1.729000
  C      1.459622   -3.670823    1.729000
  C      0.093378   -3.670823    1.729000
  C     -0.642292   -2.457420    1.729000
  C     -2.061084    0.000000    1.729000
  C     -2.744087   -1.243810    1.729000
  C     -2.060965   -2.427013    1.729000
  C     -2.744087    1.243810    1.729000
  C     -2.060965    2.427013    1.729000
  C     -0.642292    2.457420    1.729000
  C      0.093378    3.670823    1.729000
  C      1.459622    3.670823    1.729000
  C      2.195292    2.457420    1.729000
  C      3.613965    2.427013    1.729000
  C      4.297087    1.243810    1.729000
  C      3.614084    0.000000    1.729000
  C      4.297087   -1.243810    1.729000
  C      3.613965   -2.427013    1.729000
  H      2.002581   -4.607417    1.729000
  H     -0.449580   -4.607417    1.729000
  H     -2.600600   -3.365525    1.729000
  H     -3.826680   -1.241892    1.729000
  H     -3.826680    1.241892    1.729000
  H     -2.600600    3.365525    1.729000
  H     -0.449580    4.607417    1.729000
  H      2.002581    4.607417    1.729000
  H      4.153600    3.365525    1.729000
  H      5.379680    1.241892    1.729000
  H      5.379680   -1.241892    1.729000
  H      4.153600   -3.365525    1.729000

----------------------------
CARTESIAN COORDINATES (A.U.)
----------------------------
  NO LB      ZA    FRAG     MASS         X           Y           Z
   0 C     6.0000    0    12.011   -2.811028   -2.327279   -3.267336
   1 C     6.0000    0    12.011   -0.123717   -2.327279   -3.267336
   2 C     6.0000    0    12.011    1.219939    0.000000   -3.267336
   3 C     6.0000    0    12.011   -0.123717    2.327279   -3.267336
   4 C     6.0000    0    12.011   -2.811028    2.327279   -3.267336
   5 C     6.0000    0    12.011   -4.154684    0.000000   -3.267336
   6 C     6.0000    0    12.011    1.213756   -4.643851   -3.267336
   7 C     6.0000    0    12.011   -0.176459   -6.936850   -3.267336
   8 C     6.0000    0    12.011   -2.758286   -6.936850   -3.267336
   9 C     6.0000    0    12.011   -4.148501   -4.643851   -3.267336
  10 C     6.0000    0    12.011   -6.829629    0.000000   -3.267336
  11 C     6.0000    0    12.011   -8.120318   -2.350460   -3.267336
  12 C     6.0000    0    12.011   -6.829404   -4.586390   -3.267336
  13 C     6.0000    0    12.011   -8.120318    2.350460   -3.267336
  14 C     6.0000    0    12.011   -6.829404    4.586390   -3.267336
  15 C     6.0000    0    12.011   -4.148501    4.643851   -3.267336
  16 C     6.0000    0    12.011   -2.758286    6.936850   -3.267336
  17 C     6.0000    0    12.011   -0.176459    6.936850   -3.267336
  18 C     6.0000    0    12.011    1.213756    4.643851   -3.267336
  19 C     6.0000    0    12.011    3.894659    4.586390   -3.267336
  20 C     6.0000    0    12.011    5.185573    2.350460   -3.267336
  21 C     6.0000    0    12.011    3.894884    0.000000   -3.267336
  22 C     6.0000    0    12.011    5.185573   -2.350460   -3.267336
  23 C     6.0000    0    12.011    3.894659   -4.586390   -3.267336
  24 H     1.0000    0     1.008    0.849583   -8.706756   -3.267336
  25 H     1.0000    0     1.008   -3.784330   -8.706756   -3.267336
  26 H     1.0000    0     1.008   -7.849166   -6.359921   -3.267336
  27 H     1.0000    0     1.008  -10.166122   -2.346836   -3.267336
  28 H     1.0000    0     1.008  -10.166122    2.346836   -3.267336
  29 H     1.0000    0     1.008   -7.849166    6.359921   -3.267336
  30 H     1.0000    0     1.008   -3.784330    8.706756   -3.267336
  31 H     1.0000    0     1.008    0.849583    8.706756   -3.267336
  32 H     1.0000    0     1.008    4.914422    6.359921   -3.267336
  33 H     1.0000    0     1.008    7.231377    2.346836   -3.267336
  34 H     1.0000    0     1.008    7.231377   -2.346836   -3.267336
  35 H     1.0000    0     1.008    4.914422   -6.359921   -3.267336
  36 C     6.0000    0    12.011    0.123717   -2.327279    3.267336
  37 C     6.0000    0    12.011    2.811028   -2.327279    3.267336
  38 C     6.0000    0    12.011    4.154684    0.000000    3.267336
  39 C     6.0000    0    12.011    2.811028    2.327279    3.267336
  40 C     6.0000    0    12.011    0.123717    2.327279    3.267336
  41 C     6.0000    0    12.011   -1.219939    0.000000    3.267336
  42 C     6.0000    0    12.011    4.148501   -4.643851    3.267336
  43 C     6.0000    0    12.011    2.758286   -6.936850    3.267336
  44 C     6.0000    0    12.011    0.176459   -6.936850    3.267336
  45 C     6.0000    0    12.011   -1.213756   -4.643851    3.267336
  46 C     6.0000    0    12.011   -3.894884    0.000000    3.267336
  47 C     6.0000    0    12.011   -5.185573   -2.350460    3.267336
  48 C     6.0000    0    12.011   -3.894659   -4.586390    3.267336
  49 C     6.0000    0    12.011   -5.185573    2.350460    3.267336
  50 C     6.0000    0    12.011   -3.894659    4.586390    3.267336
  51 C     6.0000    0    12.011   -1.213756    4.643851    3.267336
  52 C     6.0000    0    12.011    0.176459    6.936850    3.267336
  53 C     6.0000    0    12.011    2.758286    6.936850    3.267336
  54 C     6.0000    0    12.011    4.148501    4.643851    3.267336
  55 C     6.0000    0    12.011    6.829404    4.586390    3.267336
  56 C     6.0000    0    12.011    8.120318    2.350460    3.267336
  57 C     6.0000    0    12.011    6.829629    0.000000    3.267336
  58 C     6.0000    0    12.011    8.120318   -2.350460    3.267336
  59 C     6.0000    0    12.011    6.829404   -4.586390    3.267336
  60 H     1.0000    0     1.008    3.784330   -8.706756    3.267336
  61 H     1.0000    0     1.008   -0.849583   -8.706756    3.267336
  62 H     1.0000    0     1.008   -4.914422   -6.359921    3.267336
  63 H     1.0000    0     1.008   -7.231377   -2.346836    3.267336
  64 H     1.0000    0     1.008   -7.231377    2.346836    3.267336
  65 H     1.0000    0     1.008   -4.914422    6.359921    3.267336
  66 H     1.0000    0     1.008   -0.849583    8.706756    3.267336
  67 H     1.0000    0     1.008    3.784330    8.706756    3.267336
  68 H     1.0000    0     1.008    7.849166    6.359921    3.267336
  69 H     1.0000    0     1.008   10.166122    2.346836    3.267336
  70 H     1.0000    0     1.008   10.166122   -2.346836    3.267336
  71 H     1.0000    0     1.008    7.849166   -6.359921    3.267336

--------------------------------
INTERNAL COORDINATES (ANGSTROEM)
--------------------------------
 C      0   0   0     0.000000000000     0.00000000     0.00000000
 C      1   0   0     1.422064000000     0.00000000     0.00000000
 C      2   1   0     1.422063523853   120.00001108     0.00000000
 C      3   2   1     1.422063523853   119.99997785     0.00000000
 C      4   3   2     1.422064000000   120.00001108     0.00000000
 C      1   2   3     1.422063523853   120.00001108     0.00000000
 C      2   1   3     1.415520623915   119.99998542   180.00000000
 C      7   2   1     1.418998657261   118.77214199     0.00000000
 C      8   7   2     1.366244000000   121.22787259     0.00000000
 C      1   2   3     1.415520623915   119.99998542   180.00000000
 C      6   1   2     1.415520000000   120.00001108   180.00000085
 C     11   6   1     1.418998384111   118.77214162     0.00000000
 C     12  11   6     1.366244855834   121.22787910     0.00000000
 C     11   6   1     1.418998384111   118.77214162   180.00000000
 C     14  11   6     1.366244855834   121.22787910     0.00000000
 C      5   4   3     1.415520623915   119.99998542   180.00000000
 C     16   5   4     1.418998657261   118.77214199     0.00000000
 C     17  16   5     1.366244000000   121.22787259     0.00000000
 C      4   3   2     1.415520623915   120.00000350   180.00000085
 C     19   4   3     1.418998825432   118.77212949     0.00000000
 C     20  19   4     1.366244855834   121.22783521     0.00000000
 C      3   2   1     1.415520000000   120.00001108   180.00000085
 C     22   3   2     1.418998384111   118.77214162     0.00000000
 C     23  22   3     1.366244855834   121.22787910     0.00000000
 H      8   7   2     1.082594896810   118.67059590   180.00000000
 H      9   8   7     1.082595398345   120.10157730   180.00000085
 H     13  12  11     1.082594433465   120.10155016   180.00000000
 H     12  11   6     1.082594699032   118.67063238   180.00000000
 H     14  11   6     1.082594699032   118.67063238   180.00000000
 H     15  14  11     1.082594433465   120.10155016   180.00000000
 H     17  16   5     1.082595398345   118.67055011   180.00000000
 H     18  17  16     1.082594896810   120.10153151   180.00000085
 H     20  19   4     1.082594433465   118.67061463   180.00000000
 H     21  20  19     1.082594699032   120.10148852   180.00000085
 H     23  22   3     1.082594699032   118.67063238   180.00000000
 H     24  23  22     1.082594433465   120.10155016   180.00000121
 C      2   1   3     3.460478035777    92.16844938    90.00000000
 C     37   2   1     1.422064000000    92.16844938   180.00000000
 C     38  37   2     1.422063523853   120.00001108    90.00000000
 C     39  38  37     1.422063523853   119.99997785     0.00000000
 C     40  39  38     1.422064000000   120.00001108     0.00000000
 C     37   2   1     1.422063523853    88.91596909   299.98224168
 C     38  37   2     1.415520623915   119.99998542   270.00000000
 C     43  38  37     1.418998657261   118.77214199     0.00000000
 C     44  43  38     1.366244000000   121.22787259     0.00000000
 C     37   2   1     1.415520623915    88.91596993    60.01778396
 C     42  37   2     1.415520000000   120.00001108    88.12184382
 C     47  42  37     1.418998384111   118.77214162     0.00000000
 C     48  47  42     1.366244855834   121.22787910     0.00000000
 C     47  42  37     1.418998384111   118.77214162   180.00000000
 C     50  47  42     1.366244855834   121.22787910     0.00000000
 C     41  40  39     1.415520623915   119.99998542   180.00000000
 C     52  41  40     1.418998657261   118.77214199     0.00000000
 C     53  52  41     1.366244000000   121.22787259     0.00000000
 C     40  39  38     1.415520623915   120.00000350   180.00000000
 C     55  40  39     1.418998825432   118.77212949     0.00000000
 C     56  55  40     1.366244855834   121.22783521     0.00000000
 C     39  38  37     1.415520000000   120.00001108   180.00000085
 C     58  39  38     1.418998384111   118.77214162     0.00000000
 C     59  58  39     1.366244855834   121.22787910     0.00000000
 H     44  43  38     1.082595398345   118.67055011   180.00000000
 H     45  44  43     1.082594896810   120.10153151   180.00000085
 H     49  48  47     1.082594433465   120.10155016   180.00000121
 H     48  47  42     1.082594699032   118.67063238   180.00000000
 H     50  47  42     1.082594699032   118.67063238   180.00000000
 H     51  50  47     1.082594433465   120.10155016   180.00000121
 H     53  52  41     1.082594896810   118.67059590   180.00000000
 H     54  53  52     1.082595398345   120.10157730   180.00000085
 H     56  55  40     1.082594433465   118.67061463   180.00000000
 H     57  56  55     1.082594699032   120.10148852   180.00000085
 H     59  58  39     1.082594699032   118.67063238   180.00000000
 H     60  59  58     1.082594433465   120.10155016   180.00000000

---------------------------
INTERNAL COORDINATES (A.U.)
---------------------------
 C      0   0   0     0.000000000000     0.00000000     0.00000000
 C      1   0   0     2.687311504909     0.00000000     0.00000000
 C      2   1   0     2.687310605121   120.00001108     0.00000000
 C      3   2   1     2.687310605121   119.99997785     0.00000000
 C      4   3   2     2.687311504909   120.00001108     0.00000000
 C      1   2   3     2.687310605121   120.00001108     0.00000000
 C      2   1   3     2.674946316117   119.99998542   180.00000000
 C      7   2   1     2.681518846626   118.77214199     0.00000000
 C      8   7   2     2.581826992113   121.22787259     0.00000000
 C      1   2   3     2.674946316117   119.99998542   180.00000000
 C      6   1   2     2.674945137088   120.00001108   180.00000085
 C     11   6   1     2.681518330446   118.77214162     0.00000000
 C     12  11   6     2.581828609405   121.22787910     0.00000000
 C     11   6   1     2.681518330446   118.77214162   180.00000000
 C     14  11   6     2.581828609405   121.22787910     0.00000000
 C      5   4   3     2.674946316117   119.99998542   180.00000000
 C     16   5   4     2.681518846626   118.77214199     0.00000000
 C     17  16   5     2.581826992113   121.22787259     0.00000000
 C      4   3   2     2.674946316117   120.00000350   180.00000085
 C     19   4   3     2.681519164423   118.77212949     0.00000000
 C     20  19   4     2.581828609405   121.22783521     0.00000000
 C      3   2   1     2.674945137088   120.00001108   180.00000085
 C     22   3   2     2.681518330446   118.77214162     0.00000000
 C     23  22   3     2.581828609405   121.22787910     0.00000000
 H      8   7   2     2.045807868952   118.67059590   180.00000000
 H      9   8   7     2.045808816715   120.10157730   180.00000085
 H     13  12  11     2.045806993356   120.10155016   180.00000000
 H     12  11   6     2.045807495206   118.67063238   180.00000000
 H     14  11   6     2.045807495206   118.67063238   180.00000000
 H     15  14  11     2.045806993356   120.10155016   180.00000000
 H     17  16   5     2.045808816715   118.67055011   180.00000000
 H     18  17  16     2.045807868952   120.10153151   180.00000085
 H     20  19   4     2.045806993356   118.67061463   180.00000000
 H     21  20  19     2.045807495206   120.10148852   180.00000085
 H     23  22   3     2.045807495206   118.67063238   180.00000000
 H     24  23  22     2.045806993356   120.10155016   180.00000121
 C      2   1   3     6.539355780069    92.16844938    90.00000000
 C     37   2   1     2.687311504909    92.16844938   180.00000000
 C     38  37   2     2.687310605121   120.00001108    90.00000000
 C     39  38  37     2.687310605121   119.99997785     0.00000000
 C     40  39  38     2.687311504909   120.00001108     0.00000000
 C     37   2   1     2.687310605121    88.91596909   299.98224168
 C     38  37   2     2.674946316117   119.99998542   270.00000000
 C     43  38  37     2.681518846626   118.77214199     0.00000000
 C     44  43  38     2.581826992113   121.22787259     0.00000000
 C     37   2   1     2.674946316117    88.91596993    60.01778396
 C     42  37   2     2.674945137088   120.00001108    88.12184382
 C     47  42  37     2.681518330446   118.77214162     0.00000000
 C     48  47  42     2.581828609405   121.22787910     0.00000000
 C     47  42  37     2.681518330446   118.77214162   180.00000000
 C     50  47  42     2.581828609405   121.22787910     0.00000000
 C     41  40  39     2.674946316117   119.99998542   180.00000000
 C     52  41  40     2.681518846626   118.77214199     0.00000000
 C     53  52  41     2.581826992113   121.22787259     0.00000000
 C     40  39  38     2.674946316117   120.00000350   180.00000000
 C     55  40  39     2.681519164423   118.77212949     0.00000000
 C     56  55  40     2.581828609405   121.22783521     0.00000000
 C     39  38  37     2.674945137088   120.00001108   180.00000085
 C     58  39  38     2.681518330446   118.77214162     0.00000000
 C     59  58  39     2.581828609405   121.22787910     0.00000000
 H     44  43  38     2.045808816715   118.67055011   180.00000000
 H     45  44  43     2.045807868952   120.10153151   180.00000085
 H     49  48  47     2.045806993356   120.10155016   180.00000121
 H     48  47  42     2.045807495206   118.67063238   180.00000000
 H     50  47  42     2.045807495206   118.67063238   180.00000000
 H     51  50  47     2.045806993356   120.10155016   180.00000121
 H     53  52  41     2.045807868952   118.67059590   180.00000000
 H     54  53  52     2.045808816715   120.10157730   180.00000085
 H     56  55  40     2.045806993356   118.67061463   180.00000000
 H     57  56  55     2.045807495206   120.10148852   180.00000085
 H     59  58  39     2.045807495206   118.67063238   180.00000000
 H     60  59  58     2.045806993356   120.10155016   180.00000000

---------------------
BASIS SET INFORMATION
---------------------
There are 2 groups of distinct atoms

 Group   1 Type C   : 18s5p3d2f contracted to 4s3p3d2f pattern {8811/311/111/11}
 Group   2 Type H   : 5s2p1d contracted to 3s2p1d pattern {311/11/1}

Atom   0C    basis set group =>   1
Atom   1C    basis set group =>   1
Atom   2C    basis set group =>   1
Atom   3C    basis set group =>   1
Atom   4C    basis set group =>   1
Atom   5C    basis set group =>   1
Atom   6C    basis set group =>   1
Atom   7C    basis set group =>   1
Atom   8C    basis set group =>   1
Atom   9C    basis set group =>   1
Atom  10C    basis set group =>   1
Atom  11C    basis set group =>   1
Atom  12C    basis set group =>   1
Atom  13C    basis set group =>   1
Atom  14C    basis set group =>   1
Atom  15C    basis set group =>   1
Atom  16C    basis set group =>   1
Atom  17C    basis set group =>   1
Atom  18C    basis set group =>   1
Atom  19C    basis set group =>   1
Atom  20C    basis set group =>   1
Atom  21C    basis set group =>   1
Atom  22C    basis set group =>   1
Atom  23C    basis set group =>   1
Atom  24H    basis set group =>   2
Atom  25H    basis set group =>   2
Atom  26H    basis set group =>   2
Atom  27H    basis set group =>   2
Atom  28H    basis set group =>   2
Atom  29H    basis set group =>   2
Atom  30H    basis set group =>   2
Atom  31H    basis set group =>   2
Atom  32H    basis set group =>   2
Atom  33H    basis set group =>   2
Atom  34H    basis set group =>   2
Atom  35H    basis set group =>   2
Atom  36C    basis set group =>   1
Atom  37C    basis set group =>   1
Atom  38C    basis set group =>   1
Atom  39C    basis set group =>   1
Atom  40C    basis set group =>   1
Atom  41C    basis set group =>   1
Atom  42C    basis set group =>   1
Atom  43C    basis set group =>   1
Atom  44C    basis set group =>   1
Atom  45C    basis set group =>   1
Atom  46C    basis set group =>   1
Atom  47C    basis set group =>   1
Atom  48C    basis set group =>   1
Atom  49C    basis set group =>   1
Atom  50C    basis set group =>   1
Atom  51C    basis set group =>   1
Atom  52C    basis set group =>   1
Atom  53C    basis set group =>   1
Atom  54C    basis set group =>   1
Atom  55C    basis set group =>   1
Atom  56C    basis set group =>   1
Atom  57C    basis set group =>   1
Atom  58C    basis set group =>   1
Atom  59C    basis set group =>   1
Atom  60H    basis set group =>   2
Atom  61H    basis set group =>   2
Atom  62H    basis set group =>   2
Atom  63H    basis set group =>   2
Atom  64H    basis set group =>   2
Atom  65H    basis set group =>   2
Atom  66H    basis set group =>   2
Atom  67H    basis set group =>   2
Atom  68H    basis set group =>   2
Atom  69H    basis set group =>   2
Atom  70H    basis set group =>   2
Atom  71H    basis set group =>   2
---------------------------------
AUXILIARY/C BASIS SET INFORMATION
---------------------------------
There are 2 groups of distinct atoms

 Group   1 Type C   : 8s6p6d4f2g contracted to 8s6p6d4f2g pattern {11111111/111111/111111/1111/11}
 Group   2 Type H   : 4s3p2d1f contracted to 4s3p2d1f pattern {1111/111/11/1}

Atom   0C    basis set group =>   1
Atom   1C    basis set group =>   1
Atom   2C    basis set group =>   1
Atom   3C    basis set group =>   1
Atom   4C    basis set group =>   1
Atom   5C    basis set group =>   1
Atom   6C    basis set group =>   1
Atom   7C    basis set group =>   1
Atom   8C    basis set group =>   1
Atom   9C    basis set group =>   1
Atom  10C    basis set group =>   1
Atom  11C    basis set group =>   1
Atom  12C    basis set group =>   1
Atom  13C    basis set group =>   1
Atom  14C    basis set group =>   1
Atom  15C    basis set group =>   1
Atom  16C    basis set group =>   1
Atom  17C    basis set group =>   1
Atom  18C    basis set group =>   1
Atom  19C    basis set group =>   1
Atom  20C    basis set group =>   1
Atom  21C    basis set group =>   1
Atom  22C    basis set group =>   1
Atom  23C    basis set group =>   1
Atom  24H    basis set group =>   2
Atom  25H    basis set group =>   2
Atom  26H    basis set group =>   2
Atom  27H    basis set group =>   2
Atom  28H    basis set group =>   2
Atom  29H    basis set group =>   2
Atom  30H    basis set group =>   2
Atom  31H    basis set group =>   2
Atom  32H    basis set group =>   2
Atom  33H    basis set group =>   2
Atom  34H    basis set group =>   2
Atom  35H    basis set group =>   2
Atom  36C    basis set group =>   1
Atom  37C    basis set group =>   1
Atom  38C    basis set group =>   1
Atom  39C    basis set group =>   1
Atom  40C    basis set group =>   1
Atom  41C    basis set group =>   1
Atom  42C    basis set group =>   1
Atom  43C    basis set group =>   1
Atom  44C    basis set group =>   1
Atom  45C    basis set group =>   1
Atom  46C    basis set group =>   1
Atom  47C    basis set group =>   1
Atom  48C    basis set group =>   1
Atom  49C    basis set group =>   1
Atom  50C    basis set group =>   1
Atom  51C    basis set group =>   1
Atom  52C    basis set group =>   1
Atom  53C    basis set group =>   1
Atom  54C    basis set group =>   1
Atom  55C    basis set group =>   1
Atom  56C    basis set group =>   1
Atom  57C    basis set group =>   1
Atom  58C    basis set group =>   1
Atom  59C    basis set group =>   1
Atom  60H    basis set group =>   2
Atom  61H    basis set group =>   2
Atom  62H    basis set group =>   2
Atom  63H    basis set group =>   2
Atom  64H    basis set group =>   2
Atom  65H    basis set group =>   2
Atom  66H    basis set group =>   2
Atom  67H    basis set group =>   2
Atom  68H    basis set group =>   2
Atom  69H    basis set group =>   2
Atom  70H    basis set group =>   2
Atom  71H    basis set group =>   2
----------------------------------
AUXILIARY/JK BASIS SET INFORMATION
----------------------------------
There are 2 groups of distinct atoms

 Group   1 Type C   : 10s7p5d2f1g contracted to 10s7p5d2f1g pattern {1111111111/1111111/11111/11/1}
 Group   2 Type H   : 4s3p2d1f contracted to 4s3p2d1f pattern {1111/111/11/1}

Atom   0C    basis set group =>   1
Atom   1C    basis set group =>   1
Atom   2C    basis set group =>   1
Atom   3C    basis set group =>   1
Atom   4C    basis set group =>   1
Atom   5C    basis set group =>   1
Atom   6C    basis set group =>   1
Atom   7C    basis set group =>   1
Atom   8C    basis set group =>   1
Atom   9C    basis set group =>   1
Atom  10C    basis set group =>   1
Atom  11C    basis set group =>   1
Atom  12C    basis set group =>   1
Atom  13C    basis set group =>   1
Atom  14C    basis set group =>   1
Atom  15C    basis set group =>   1
Atom  16C    basis set group =>   1
Atom  17C    basis set group =>   1
Atom  18C    basis set group =>   1
Atom  19C    basis set group =>   1
Atom  20C    basis set group =>   1
Atom  21C    basis set group =>   1
Atom  22C    basis set group =>   1
Atom  23C    basis set group =>   1
Atom  24H    basis set group =>   2
Atom  25H    basis set group =>   2
Atom  26H    basis set group =>   2
Atom  27H    basis set group =>   2
Atom  28H    basis set group =>   2
Atom  29H    basis set group =>   2
Atom  30H    basis set group =>   2
Atom  31H    basis set group =>   2
Atom  32H    basis set group =>   2
Atom  33H    basis set group =>   2
Atom  34H    basis set group =>   2
Atom  35H    basis set group =>   2
Atom  36C    basis set group =>   1
Atom  37C    basis set group =>   1
Atom  38C    basis set group =>   1
Atom  39C    basis set group =>   1
Atom  40C    basis set group =>   1
Atom  41C    basis set group =>   1
Atom  42C    basis set group =>   1
Atom  43C    basis set group =>   1
Atom  44C    basis set group =>   1
Atom  45C    basis set group =>   1
Atom  46C    basis set group =>   1
Atom  47C    basis set group =>   1
Atom  48C    basis set group =>   1
Atom  49C    basis set group =>   1
Atom  50C    basis set group =>   1
Atom  51C    basis set group =>   1
Atom  52C    basis set group =>   1
Atom  53C    basis set group =>   1
Atom  54C    basis set group =>   1
Atom  55C    basis set group =>   1
Atom  56C    basis set group =>   1
Atom  57C    basis set group =>   1
Atom  58C    basis set group =>   1
Atom  59C    basis set group =>   1
Atom  60H    basis set group =>   2
Atom  61H    basis set group =>   2
Atom  62H    basis set group =>   2
Atom  63H    basis set group =>   2
Atom  64H    basis set group =>   2
Atom  65H    basis set group =>   2
Atom  66H    basis set group =>   2
Atom  67H    basis set group =>   2
Atom  68H    basis set group =>   2
Atom  69H    basis set group =>   2
Atom  70H    basis set group =>   2
Atom  71H    basis set group =>   2


           ************************************************************
           *        Program running with 12 parallel MPI-processes    *
           *              working on a common directory               *
           ************************************************************
------------------------------------------------------------------------------
                           ORCA GTO INTEGRAL CALCULATION
                           -- RI-GTO INTEGRALS CHOSEN --
------------------------------------------------------------------------------
------------------------------------------------------------------------------
                   ___                                                        
                  /   \      - P O W E R E D   B Y -                         
                 /     \                                                     
                 |  |  |   _    _      __       _____    __    __             
                 |  |  |  | |  | |    /  \     |  _  \  |  |  /  |          
                  \  \/   | |  | |   /    \    | | | |  |  | /  /          
                 / \  \   | |__| |  /  /\  \   | |_| |  |  |/  /          
                |  |  |   |  __  | /  /__\  \  |    /   |      \           
                |  |  |   | |  | | |   __   |  |    \   |  |\   \          
                \     /   | |  | | |  |  |  |  | |\  \  |  | \   \       
                 \___/    |_|  |_| |__|  |__|  |_| \__\ |__|  \__/        
                                                                              
                      - O R C A' S   B I G   F R I E N D -                    
                                      &                                       
                       - I N T E G R A L  F E E D E R -                       
                                                                              
 v1 FN, 2020, v2 2021                                                         
------------------------------------------------------------------------------


Reading SHARK input file coronene_dim_norm_dfavtz.SHARKINP.tmp ... ok
----------------------
SHARK INTEGRAL PACKAGE
----------------------

Number of atoms                             ...     72
Number of basis functions                   ...   2640
Number of shells                            ...   1008
Maximum angular momentum                    ...      3
Integral batch strategy                     ... SHARK/LIBINT Hybrid
RI-J (if used) integral strategy            ... SPLIT-RIJ (Revised 2003 algorithm where possible)
Printlevel                                  ...      1
Contraction scheme used                     ... PARTIAL GENERAL contraction
Coulomb Range Separation                    ... NOT USED
Exchange Range Separation                   ... NOT USED
Finite Nucleus Model                        ... NOT USED
Auxiliary Coulomb fitting basis             ... NOT available
Auxiliary J/K fitting basis                 ... AVAILABLE
   # of basis functions in Aux-JK           ...   4512
   # of shells in Aux-JK                    ...   1440
   Maximum angular momentum in Aux-JK       ...      4
Auxiliary Correlation fitting basis         ... AVAILABLE
   # of basis functions in Aux-C            ...   5616
   # of shells in Aux-C                     ...   1488
   Maximum angular momentum in Aux-C        ...      4
Auxiliary 'external' fitting basis          ... NOT available
Integral threshold                          ...     1.000000e-12
Primitive cut-off                           ...     1.000000e-14
Primitive pair pre-selection threshold      ...     1.000000e-14

Calculating pre-screening integrals         ... done (  0.3 sec) Dimension = 1008
Calculating pre-screening integrals (ORCA)  ... done (  0.9 sec) Dimension = 720
Organizing shell pair data                  ... done (  3.3 sec)
Shell pair information
Total number of shell pairs                 ...    508536
Shell pairs after pre-screening             ...    296441
Total number of primitive shell pairs       ...    664344
Primitive shell pairs kept                  ...    343047
          la=0 lb=0:  58744 shell pairs
          la=1 lb=0:  61886 shell pairs
          la=1 lb=1:  13552 shell pairs
          la=2 lb=0:  60106 shell pairs
          la=2 lb=1:  25148 shell pairs
          la=2 lb=2:  11619 shell pairs
          la=3 lb=0:  33010 shell pairs
          la=3 lb=1:  14730 shell pairs
          la=3 lb=2:  13482 shell pairs
          la=3 lb=3:   4164 shell pairs

Calculating one electron integrals          ... done (  0.6 sec)
Calculating RI/JK V-Matrix + Cholesky decomp... done (  0.9 sec)
Calculating RI/C V-Matrix + Cholesky decomp.... done (  1.4 sec)
Calculating Nuclear repulsion               ... done (  0.0 sec) ENN=   6088.169993449632 Eh

SHARK setup successfully completed in  10.8 seconds

Maximum memory used throughout the entire GTOINT-calculation: 414.0 MB


           ************************************************************
           *        Program running with 12 parallel MPI-processes    *
           *              working on a common directory               *
           ************************************************************
-------------------------------------------------------------------------------
                                 ORCA SCF
-------------------------------------------------------------------------------

------------
SCF SETTINGS
------------
Hamiltonian:
 Ab initio Hamiltonian  Method          .... Hartree-Fock(GTOs)
 RI-approximation to the Coulomb term is turned on
   Number of AuxJK basis functions      .... 4512
   RI-JK (J+K treated both via RI)      .... on


General Settings:
 Integral files         IntName         .... coronene_dim_norm_dfavtz
 Hartree-Fock type      HFTyp           .... RHF
 Total Charge           Charge          ....    0
 Multiplicity           Mult            ....    1
 Number of Electrons    NEL             ....  312
 Basis Dimension        Dim             .... 2352
 Nuclear Repulsion      ENuc            ....   6088.1699934496 Eh

Convergence Acceleration:
 DIIS                   CNVDIIS         .... on
   Start iteration      DIISMaxIt       ....    12
   Startup error        DIISStart       ....  0.200000
   # of expansion vecs  DIISMaxEq       ....     5
   Bias factor          DIISBfac        ....   1.050
   Max. coefficient     DIISMaxC        ....  10.000
 Trust-Rad. Augm. Hess. CNVTRAH         .... auto
   Auto Start mean grad. ratio tolernc. ....  1.125000
   Auto Start start iteration           ....    20
   Auto Start num. interpolation iter.  ....    10
   Max. Number of Micro iterations      ....    16
   Max. Number of Macro iterations      .... Maxiter - #DIIS iter
   Number of Davidson start vectors     ....     2
   Converg. threshold I  (grad. norm)   ....   2.000e-06
   Converg. threshold II (energy diff.) ....   1.000e-09
   Grad. Scal. Fac. for Micro threshold ....   0.100
   Minimum threshold for Micro iter.    ....   0.010
   NR start threshold (gradient norm)   ....   0.001
   Initial trust radius                 ....   0.400
   Minimum AH scaling param. (alpha)    ....   1.000
   Maximum AH scaling param. (alpha)    .... 1000.000
   Orbital update algorithm             .... Taylor
   White noise on init. David. guess    .... on
   Maximum white noise                  ....   0.010
   Quad. conv. algorithm                .... NR
 SOSCF                  CNVSOSCF        .... on
   Start iteration      SOSCFMaxIt      ....   150
   Startup grad/error   SOSCFStart      ....  0.003300
 Level Shifting         CNVShift        .... on
   Level shift para.    LevelShift      ....    0.2500
   Turn off err/grad.   ShiftErr        ....    0.0010
 Zerner damping         CNVZerner       .... off
 Static damping         CNVDamp         .... on
   Fraction old density DampFac         ....    0.7000
   Max. Damping (<1)    DampMax         ....    0.9800
   Min. Damping (>=0)   DampMin         ....    0.0000
   Turn off err/grad.   DampErr         ....    0.1000
 Fernandez-Rico         CNVRico         .... off

SCF Procedure:
 Maximum # iterations   MaxIter         ....  2000
 SCF integral mode      SCFMode         .... Direct
   Integral package                     .... SHARK and LIBINT hybrid scheme
 Reset frequency        DirectResetFreq ....    20
 Integral Threshold     Thresh          ....  1.000e-12 Eh
 Primitive CutOff       TCut            ....  1.000e-14 Eh

Convergence Tolerance:
 Convergence Check Mode ConvCheckMode   .... Total+1el-Energy
 Convergence forced     ConvForced      .... 1
 Energy Change          TolE            ....  1.000e-09 Eh
 1-El. energy change                    ....  1.000e-06 Eh
 Orbital Gradient       TolG            ....  2.000e-06
 Orbital Rotation angle TolX            ....  2.000e-06
 DIIS Error             TolErr          ....  1.000e-08


Diagonalization of the overlap matrix:
Smallest eigenvalue                        ... 6.278e-08
Time for diagonalization                   ...    0.676 sec
Threshold for overlap eigenvalues          ... 1.000e-08
Number of eigenvalues below threshold      ... 0
Time for construction of square roots      ...    0.551 sec
Total time needed                          ...    1.253 sec

Time for model grid setup =    2.309 sec

------------------------------
INITIAL GUESS: MODEL POTENTIAL
------------------------------
Loading Hartree-Fock densities                     ... done
Calculating cut-offs                               ... done
Initializing the effective Hamiltonian             ... done
Setting up the integral package (SHARK)            ... done
Starting the Coulomb interaction                   ... done (   6.5 sec)
Reading the grid                                   ... done
Mapping shells                                     ... done
Starting the XC term evaluation                    ... done (   2.7 sec)
Transforming the Hamiltonian                       ... done (   0.4 sec)
Diagonalizing the Hamiltonian                      ... done (   0.8 sec)
Back transforming the eigenvectors                 ... done (   0.2 sec)
Now organizing SCF variables                       ... done
                      ------------------
                      INITIAL GUESS DONE (  13.1 sec)
                      ------------------
--------------
SCF ITERATIONS
--------------
ITER       Energy         Delta-E        Max-DP      RMS-DP      [F,P]     Damp
  0  -1830.8187404755   0.000000000000 0.62071121  0.00295467  0.1897081 0.7000
  1  -1830.7506112758   0.068129199688 0.48057876  0.00292841  0.1942160 0.7000
                               ***Turning on DIIS***
  2  -1830.9443954075  -0.193784131684 0.32451562  0.00218765  0.1372052 0.7000
  3  -1837.0252375818  -6.080842174322 0.58470433  0.00423994  0.0736887 0.0000
  4  -1829.4137012278   7.611536354048 0.18828896  0.00109484  0.0490451 0.0000
  5  -1830.8287312591  -1.415030031321 0.08458417  0.00056852  0.0209542 0.0000
  6  -1831.6641418019  -0.835410542800 0.03510459  0.00027995  0.0083949 0.0000
                      *** Initiating the SOSCF procedure ***
                           *** Shutting down DIIS ***
                      *** Re-Reading the Fockian *** 
                      *** Removing any level shift *** 
ITER      Energy       Delta-E        Grad      Rot      Max-DP    RMS-DP
  7  -1832.12566175  -0.4615199487  0.001011  0.001011  0.010467  0.000086
  8  -1832.42597698  -0.3003152276  0.000737  0.001933  0.006751  0.000053
  9  -1832.42602274  -0.0000457637  0.000368  0.002151  0.004786  0.000037
 10  -1832.42603892  -0.0000161818  0.000118  0.000317  0.002386  0.000015
 11  -1832.42604076  -0.0000018364  0.000101  0.000215  0.001050  0.000007
 12  -1832.42604142  -0.0000006646  0.000017  0.000056  0.000331  0.000002
 13  -1832.42604149  -0.0000000618  0.000011  0.000042  0.000109  0.000001
 14  -1832.42604150  -0.0000000174  0.000006  0.000040  0.000059  0.000000
 15  -1832.42604151  -0.0000000065  0.000004  0.000036  0.000042  0.000000
 16  -1832.42604151  -0.0000000027  0.000002  0.000013  0.000023  0.000000
 17  -1832.42604151  -0.0000000005  0.000001  0.000002  0.000018  0.000000
                  ***Gradient check signals convergence***
              ***Rediagonalizing the Fockian in SOSCF/NRSCF***

               *****************************************************
               *                     SUCCESS                       *
               *           SCF CONVERGED AFTER  18 CYCLES          *
               *****************************************************


----------------
TOTAL SCF ENERGY
----------------

Total Energy       :        -1832.42604151 Eh          -49862.84757 eV

Components:
Nuclear Repulsion  :         6088.16999345 Eh          165667.52790 eV
Electronic Energy  :        -7920.59603496 Eh         -215530.37546 eV
One Electron Energy:       -14614.13406303 Eh         -397670.80505 eV
Two Electron Energy:         6693.53802806 Eh          182140.42958 eV

Virial components:
Potential Energy   :        -3662.93075651 Eh          -99673.41318 eV
Kinetic Energy     :         1830.50471500 Eh           49810.56562 eV
Virial Ratio       :            2.00104962


---------------
SCF CONVERGENCE
---------------

  Last Energy change         ...   -8.6402e-11  Tolerance :   1.0000e-09
  Last MAX-Density change    ...    5.8045e-06  Tolerance :   1.0000e-08
  Last RMS-Density change    ...    3.4558e-08  Tolerance :   1.0000e-09
  Last Orbital Gradient      ...    2.2001e-07  Tolerance :   2.0000e-06
  Last Orbital Rotation      ...    1.0267e-06  Tolerance :   2.0000e-06

             **** THE GBW FILE WAS UPDATED (coronene_dim_norm_dfavtz.gbw) ****
             **** DENSITY coronene_dim_norm_dfavtz.scfp WAS UPDATED ****
             **** ENERGY FILE WAS UPDATED (coronene_dim_norm_dfavtz.en.tmp) ****
             **** THE GBW FILE WAS UPDATED (coronene_dim_norm_dfavtz.gbw) ****
             **** DENSITY coronene_dim_norm_dfavtz.scfp WAS UPDATED ****
----------------
ORBITAL ENERGIES
----------------

  NO   OCC          E(Eh)            E(eV) 
   0   2.0000     -11.241695      -305.9021 
   1   2.0000     -11.241695      -305.9021 
   2   2.0000     -11.240962      -305.8821 
   3   2.0000     -11.240962      -305.8821 
   4   2.0000     -11.240952      -305.8818 
   5   2.0000     -11.240951      -305.8818 
   6   2.0000     -11.240503      -305.8696 
   7   2.0000     -11.240503      -305.8696 
   8   2.0000     -11.240217      -305.8619 
   9   2.0000     -11.240215      -305.8618 
  10   2.0000     -11.240130      -305.8595 
  11   2.0000     -11.240129      -305.8595 
  12   2.0000     -11.239154      -305.8329 
  13   2.0000     -11.239153      -305.8329 
  14   2.0000     -11.239113      -305.8318 
  15   2.0000     -11.239113      -305.8318 
  16   2.0000     -11.238924      -305.8267 
  17   2.0000     -11.238923      -305.8267 
  18   2.0000     -11.238396      -305.8123 
  19   2.0000     -11.238395      -305.8123 
  20   2.0000     -11.238323      -305.8103 
  21   2.0000     -11.238322      -305.8103 
  22   2.0000     -11.237450      -305.7866 
  23   2.0000     -11.237450      -305.7866 
  24   2.0000     -11.235325      -305.7287 
  25   2.0000     -11.235325      -305.7287 
  26   2.0000     -11.235240      -305.7264 
  27   2.0000     -11.235240      -305.7264 
  28   2.0000     -11.233769      -305.6864 
  29   2.0000     -11.233769      -305.6864 
  30   2.0000     -11.233768      -305.6864 
  31   2.0000     -11.233767      -305.6864 
  32   2.0000     -11.233663      -305.6835 
  33   2.0000     -11.233663      -305.6835 
  34   2.0000     -11.233639      -305.6828 
  35   2.0000     -11.233639      -305.6828 
  36   2.0000     -11.231909      -305.6358 
  37   2.0000     -11.231909      -305.6358 
  38   2.0000     -11.231909      -305.6358 
  39   2.0000     -11.231909      -305.6358 
  40   2.0000     -11.231605      -305.6275 
  41   2.0000     -11.231605      -305.6275 
  42   2.0000     -11.231591      -305.6271 
  43   2.0000     -11.231591      -305.6271 
  44   2.0000     -11.229635      -305.5739 
  45   2.0000     -11.229635      -305.5739 
  46   2.0000     -11.229571      -305.5722 
  47   2.0000     -11.229571      -305.5722 
  48   2.0000      -1.213902       -33.0320 
  49   2.0000      -1.209280       -32.9062 
  50   2.0000      -1.167814       -31.7778 
  51   2.0000      -1.167092       -31.7582 
  52   2.0000      -1.164157       -31.6783 
  53   2.0000      -1.163517       -31.6609 
  54   2.0000      -1.107872       -30.1467 
  55   2.0000      -1.107798       -30.1447 
  56   2.0000      -1.105376       -30.0788 
  57   2.0000      -1.105160       -30.0729 
  58   2.0000      -1.086915       -29.5765 
  59   2.0000      -1.084595       -29.5133 
  60   2.0000      -1.047354       -28.4999 
  61   2.0000      -1.045652       -28.4536 
  62   2.0000      -1.029287       -28.0083 
  63   2.0000      -1.027935       -27.9715 
  64   2.0000      -1.008649       -27.4467 
  65   2.0000      -1.007372       -27.4120 
  66   2.0000      -1.007240       -27.4084 
  67   2.0000      -1.006249       -27.3814 
  68   2.0000      -0.967395       -26.3242 
  69   2.0000      -0.966542       -26.3009 
  70   2.0000      -0.966135       -26.2899 
  71   2.0000      -0.965667       -26.2771 
  72   2.0000      -0.860059       -23.4034 
  73   2.0000      -0.860016       -23.4022 
  74   2.0000      -0.859390       -23.3852 
  75   2.0000      -0.859264       -23.3818 
  76   2.0000      -0.857837       -23.3429 
  77   2.0000      -0.857372       -23.3303 
  78   2.0000      -0.857311       -23.3286 
  79   2.0000      -0.856927       -23.3182 
  80   2.0000      -0.843699       -22.9582 
  81   2.0000      -0.843364       -22.9491 
  82   2.0000      -0.771503       -20.9937 
  83   2.0000      -0.771189       -20.9851 
  84   2.0000      -0.757445       -20.6111 
  85   2.0000      -0.757327       -20.6079 
  86   2.0000      -0.735433       -20.0121 
  87   2.0000      -0.735013       -20.0007 
  88   2.0000      -0.734283       -19.9808 
  89   2.0000      -0.734171       -19.9778 
  90   2.0000      -0.720394       -19.6029 
  91   2.0000      -0.720155       -19.5964 
  92   2.0000      -0.699732       -19.0407 
  93   2.0000      -0.699605       -19.0372 
  94   2.0000      -0.648841       -17.6559 
  95   2.0000      -0.648275       -17.6405 
  96   2.0000      -0.647770       -17.6267 
  97   2.0000      -0.647669       -17.6240 
  98   2.0000      -0.631175       -17.1751 
  99   2.0000      -0.631101       -17.1731 
 100   2.0000      -0.631055       -17.1719 
 101   2.0000      -0.631019       -17.1709 
 102   2.0000      -0.629138       -17.1197 
 103   2.0000      -0.628960       -17.1149 
 104   2.0000      -0.628782       -17.1100 
 105   2.0000      -0.628652       -17.1065 
 106   2.0000      -0.594744       -16.1838 
 107   2.0000      -0.589171       -16.0322 
 108   2.0000      -0.588666       -16.0184 
 109   2.0000      -0.582428       -15.8487 
 110   2.0000      -0.582303       -15.8453 
 111   2.0000      -0.581812       -15.8319 
 112   2.0000      -0.581780       -15.8310 
 113   2.0000      -0.578253       -15.7351 
 114   2.0000      -0.578243       -15.7348 
 115   2.0000      -0.562323       -15.3016 
 116   2.0000      -0.561828       -15.2881 
 117   2.0000      -0.561673       -15.2839 
 118   2.0000      -0.561657       -15.2835 
 119   2.0000      -0.558285       -15.1917 
 120   2.0000      -0.536881       -14.6093 
 121   2.0000      -0.529202       -14.4003 
 122   2.0000      -0.527211       -14.3462 
 123   2.0000      -0.527169       -14.3450 
 124   2.0000      -0.525130       -14.2895 
 125   2.0000      -0.524956       -14.2848 
 126   2.0000      -0.509958       -13.8767 
 127   2.0000      -0.509595       -13.8668 
 128   2.0000      -0.507822       -13.8185 
 129   2.0000      -0.506713       -13.7884 
 130   2.0000      -0.506292       -13.7769 
 131   2.0000      -0.506239       -13.7755 
 132   2.0000      -0.505001       -13.7418 
 133   2.0000      -0.501175       -13.6377 
 134   2.0000      -0.455877       -12.4050 
 135   2.0000      -0.454228       -12.3602 
 136   2.0000      -0.453997       -12.3539 
 137   2.0000      -0.453984       -12.3535 
 138   2.0000      -0.453687       -12.3455 
 139   2.0000      -0.453474       -12.3397 
 140   2.0000      -0.433443       -11.7946 
 141   2.0000      -0.431549       -11.7430 
 142   2.0000      -0.427247       -11.6260 
 143   2.0000      -0.407898       -11.0995 
 144   2.0000      -0.370307       -10.0766 
 145   2.0000      -0.354137        -9.6365 
 146   2.0000      -0.350419        -9.5354 
 147   2.0000      -0.340459        -9.2644 
 148   2.0000      -0.336098        -9.1457 
 149   2.0000      -0.324329        -8.8255 
 150   2.0000      -0.323502        -8.8029 
 151   2.0000      -0.316427        -8.6104 
 152   2.0000      -0.262996        -7.1565 
 153   2.0000      -0.255927        -6.9641 
 154   2.0000      -0.249910        -6.8004 
 155   2.0000      -0.244834        -6.6623 
 156   0.0000       0.055580         1.5124 
 157   0.0000       0.056345         1.5332 
 158   0.0000       0.064975         1.7681 
 159   0.0000       0.065361         1.7786 
 160   0.0000       0.103770         2.8237 
 161   0.0000       0.106105         2.8873 
 162   0.0000       0.108348         2.9483 
 163   0.0000       0.110025         2.9939 
 164   0.0000       0.112426         3.0593 
 165   0.0000       0.115716         3.1488 
 166   0.0000       0.117892         3.2080 
 167   0.0000       0.123500         3.3606 
 168   0.0000       0.125666         3.4196 
 169   0.0000       0.126279         3.4362 
 170   0.0000       0.128982         3.5098 
 171   0.0000       0.136743         3.7210 
 172   0.0000       0.139630         3.7995 
 173   0.0000       0.146270         3.9802 
 174   0.0000       0.147339         4.0093 
 175   0.0000       0.154069         4.1924 
 176   0.0000       0.159287         4.3344 
 177   0.0000       0.160010         4.3541 
 178   0.0000       0.163286         4.4432 
 179   0.0000       0.163400         4.4463 
 180   0.0000       0.167205         4.5499 
 181   0.0000       0.170779         4.6471 
 182   0.0000       0.173494         4.7210 
 183   0.0000       0.175731         4.7819 
 184   0.0000       0.178817         4.8659 
 185   0.0000       0.179046         4.8721 
 186   0.0000       0.180326         4.9069 
 187   0.0000       0.185361         5.0439 
 188   0.0000       0.185757         5.0547 
 189   0.0000       0.186676         5.0797 
 190   0.0000       0.188233         5.1221 
 191   0.0000       0.197184         5.3656 
 192   0.0000       0.203624         5.5409 
 193   0.0000       0.204838         5.5739 
 194   0.0000       0.205656         5.5962 
 195   0.0000       0.207599         5.6490 
 196   0.0000       0.212124         5.7722 
 197   0.0000       0.213035         5.7970 
 198   0.0000       0.213972         5.8225 
 199   0.0000       0.214422         5.8347 
 200   0.0000       0.215949         5.8763 
 201   0.0000       0.217207         5.9105 
 202   0.0000       0.229349         6.2409 
 203   0.0000       0.230239         6.2651 
 204   0.0000       0.234609         6.3840 
 205   0.0000       0.235848         6.4177 
 206   0.0000       0.239813         6.5256 
 207   0.0000       0.244823         6.6620 
 208   0.0000       0.246406         6.7051 
 209   0.0000       0.248828         6.7709 
 210   0.0000       0.250739         6.8229 
 211   0.0000       0.252401         6.8682 
 212   0.0000       0.252998         6.8844 
 213   0.0000       0.261564         7.1175 
 214   0.0000       0.262858         7.1527 
 215   0.0000       0.272934         7.4269 
 216   0.0000       0.274352         7.4655 
 217   0.0000       0.276654         7.5281 
 218   0.0000       0.280050         7.6206 
 219   0.0000       0.282011         7.6739 
 220   0.0000       0.283796         7.7225 
 221   0.0000       0.285254         7.7622 
 222   0.0000       0.285871         7.7790 
 223   0.0000       0.289277         7.8716 
 224   0.0000       0.292464         7.9583 
 225   0.0000       0.293328         7.9819 
 226   0.0000       0.296143         8.0585 
 227   0.0000       0.298673         8.1273 
 228   0.0000       0.303674         8.2634 
 229   0.0000       0.307225         8.3600 
 230   0.0000       0.308531         8.3955 
 231   0.0000       0.317096         8.6286 
 232   0.0000       0.318833         8.6759 
 233   0.0000       0.324105         8.8193 
 234   0.0000       0.326997         8.8980 
 235   0.0000       0.327344         8.9075 
 236   0.0000       0.330672         8.9980 
 237   0.0000       0.336911         9.1678 
 238   0.0000       0.338371         9.2075 
 239   0.0000       0.340910         9.2766 
 240   0.0000       0.342667         9.3245 
 241   0.0000       0.351791         9.5727 
 242   0.0000       0.352291         9.5863 
 243   0.0000       0.353851         9.6288 
 244   0.0000       0.357375         9.7247 
 245   0.0000       0.359688         9.7876 
 246   0.0000       0.363927         9.9029 
 247   0.0000       0.364688         9.9237 
 248   0.0000       0.369932        10.0664 
 249   0.0000       0.372124        10.1260 
 250   0.0000       0.372487        10.1359 
 251   0.0000       0.373385        10.1603 
 252   0.0000       0.375572        10.2198 
 253   0.0000       0.379825        10.3356 
 254   0.0000       0.386217        10.5095 
 255   0.0000       0.387513        10.5448 
 256   0.0000       0.387636        10.5481 
 257   0.0000       0.396885        10.7998 
 258   0.0000       0.397175        10.8077 
 259   0.0000       0.397340        10.8122 
 260   0.0000       0.401104        10.9146 
 261   0.0000       0.402516        10.9530 
 262   0.0000       0.403240        10.9727 
 263   0.0000       0.404763        11.0142 
 264   0.0000       0.406192        11.0531 
 265   0.0000       0.408319        11.1109 
 266   0.0000       0.409731        11.1494 
 267   0.0000       0.410119        11.1599 
 268   0.0000       0.411483        11.1970 
 269   0.0000       0.412218        11.2170 
 270   0.0000       0.412714        11.2305 
 271   0.0000       0.417341        11.3564 
 272   0.0000       0.417584        11.3630 
 273   0.0000       0.420958        11.4549 
 274   0.0000       0.422029        11.4840 
 275   0.0000       0.422304        11.4915 
 276   0.0000       0.425171        11.5695 
 277   0.0000       0.425428        11.5765 
 278   0.0000       0.426961        11.6182 
 279   0.0000       0.428972        11.6729 
 280   0.0000       0.429614        11.6904 
 281   0.0000       0.431815        11.7503 
 282   0.0000       0.433726        11.8023 
 283   0.0000       0.434288        11.8176 
 284   0.0000       0.435555        11.8521 
 285   0.0000       0.436291        11.8721 
 286   0.0000       0.436629        11.8813 
 287   0.0000       0.440661        11.9910 
 288   0.0000       0.440662        11.9910 
 289   0.0000       0.444077        12.0839 
 290   0.0000       0.445205        12.1146 
 291   0.0000       0.446280        12.1439 
 292   0.0000       0.447257        12.1705 
 293   0.0000       0.449682        12.2365 
 294   0.0000       0.450920        12.2702 
 295   0.0000       0.452105        12.3024 
 296   0.0000       0.452860        12.3229 
 297   0.0000       0.453404        12.3378 
 298   0.0000       0.454468        12.3667 
 299   0.0000       0.454761        12.3747 
 300   0.0000       0.455396        12.3919 
 301   0.0000       0.457355        12.4453 
 302   0.0000       0.465010        12.6536 
 303   0.0000       0.466234        12.6869 
 304   0.0000       0.467765        12.7285 
 305   0.0000       0.468346        12.7443 
 306   0.0000       0.471331        12.8256 
 307   0.0000       0.471729        12.8364 
 308   0.0000       0.472978        12.8704 
 309   0.0000       0.474555        12.9133 
 310   0.0000       0.476518        12.9667 
 311   0.0000       0.480151        13.0656 
 312   0.0000       0.480584        13.0773 
 313   0.0000       0.485831        13.2201 
 314   0.0000       0.485914        13.2224 
 315   0.0000       0.487553        13.2670 
 316   0.0000       0.490355        13.3432 
 317   0.0000       0.491914        13.3857 
 318   0.0000       0.492827        13.4105 
 319   0.0000       0.494140        13.4462 
 320   0.0000       0.497754        13.5446 
 321   0.0000       0.500986        13.6325 
 322   0.0000       0.503380        13.6977 
 323   0.0000       0.503611        13.7040 
 324   0.0000       0.504018        13.7150 
 325   0.0000       0.506176        13.7737 
 326   0.0000       0.507869        13.8198 
 327   0.0000       0.511980        13.9317 
 328   0.0000       0.515761        14.0346 
 329   0.0000       0.516396        14.0519 
 330   0.0000       0.517180        14.0732 
 331   0.0000       0.522183        14.2093 
 332   0.0000       0.522368        14.2144 
 333   0.0000       0.524567        14.2742 
 334   0.0000       0.525015        14.2864 
 335   0.0000       0.526010        14.3135 
 336   0.0000       0.527861        14.3638 
 337   0.0000       0.528630        14.3848 
 338   0.0000       0.531121        14.4525 
 339   0.0000       0.531587        14.4652 
 340   0.0000       0.533076        14.5057 
 341   0.0000       0.534485        14.5441 
 342   0.0000       0.535425        14.5697 
 343   0.0000       0.536039        14.5864 
 344   0.0000       0.536490        14.5986 
 345   0.0000       0.539733        14.6869 
 346   0.0000       0.540059        14.6958 
 347   0.0000       0.543661        14.7938 
 348   0.0000       0.545540        14.8449 
 349   0.0000       0.549685        14.9577 
 350   0.0000       0.550147        14.9703 
 351   0.0000       0.553189        15.0531 
 352   0.0000       0.558033        15.1849 
 353   0.0000       0.558305        15.1922 
 354   0.0000       0.560042        15.2395 
 355   0.0000       0.563986        15.3468 
 356   0.0000       0.564413        15.3585 
 357   0.0000       0.566173        15.4064 
 358   0.0000       0.567306        15.4372 
 359   0.0000       0.569343        15.4926 
 360   0.0000       0.571748        15.5580 
 361   0.0000       0.573270        15.5995 
 362   0.0000       0.577737        15.7210 
 363   0.0000       0.581654        15.8276 
 364   0.0000       0.582950        15.8629 
 365   0.0000       0.584560        15.9067 
 366   0.0000       0.585107        15.9216 
 367   0.0000       0.585636        15.9360 
 368   0.0000       0.590855        16.0780 
 369   0.0000       0.591935        16.1074 
 370   0.0000       0.600906        16.3515 
 371   0.0000       0.601330        16.3630 
 372   0.0000       0.601509        16.3679 
 373   0.0000       0.604142        16.4395 
 374   0.0000       0.604869        16.4593 
 375   0.0000       0.605821        16.4852 
 376   0.0000       0.607251        16.5241 
 377   0.0000       0.607299        16.5254 
 378   0.0000       0.608448        16.5567 
 379   0.0000       0.609926        16.5969 
 380   0.0000       0.615774        16.7561 
 381   0.0000       0.616010        16.7625 
 382   0.0000       0.616503        16.7759 
 383   0.0000       0.618613        16.8333 
 384   0.0000       0.624370        16.9900 
 385   0.0000       0.624548        16.9948 
 386   0.0000       0.626287        17.0421 
 387   0.0000       0.626855        17.0576 
 388   0.0000       0.627158        17.0658 
 389   0.0000       0.629618        17.1328 
 390   0.0000       0.632202        17.2031 
 391   0.0000       0.632479        17.2106 
 392   0.0000       0.635452        17.2915 
 393   0.0000       0.635790        17.3007 
 394   0.0000       0.636281        17.3141 
 395   0.0000       0.638346        17.3703 
 396   0.0000       0.641301        17.4507 
 397   0.0000       0.642721        17.4893 
 398   0.0000       0.645912        17.5762 
 399   0.0000       0.650231        17.6937 
 400   0.0000       0.653273        17.7765 
 401   0.0000       0.654339        17.8055 
 402   0.0000       0.656323        17.8594 
 403   0.0000       0.658270        17.9124 
 404   0.0000       0.659774        17.9534 
 405   0.0000       0.661937        18.0122 
 406   0.0000       0.663115        18.0443 
 407   0.0000       0.669933        18.2298 
 408   0.0000       0.671897        18.2832 
 409   0.0000       0.672021        18.2866 
 410   0.0000       0.676327        18.4038 
 411   0.0000       0.677488        18.4354 
 412   0.0000       0.680254        18.5107 
 413   0.0000       0.682331        18.5672 
 414   0.0000       0.684714        18.6320 
 415   0.0000       0.685028        18.6406 
 416   0.0000       0.686514        18.6810 
 417   0.0000       0.689031        18.7495 
 418   0.0000       0.690063        18.7776 
 419   0.0000       0.691739        18.8232 
 420   0.0000       0.692884        18.8543 
 421   0.0000       0.695946        18.9376 
 422   0.0000       0.696860        18.9625 
 423   0.0000       0.697035        18.9673 
 424   0.0000       0.697624        18.9833 
 425   0.0000       0.700059        19.0496 
 426   0.0000       0.701825        19.0976 
 427   0.0000       0.706264        19.2184 
 428   0.0000       0.708763        19.2864 
 429   0.0000       0.710744        19.3403 
 430   0.0000       0.713825        19.4242 
 431   0.0000       0.715049        19.4575 
 432   0.0000       0.716712        19.5027 
 433   0.0000       0.717824        19.5330 
 434   0.0000       0.721028        19.6202 
 435   0.0000       0.725509        19.7421 
 436   0.0000       0.726479        19.7685 
 437   0.0000       0.727934        19.8081 
 438   0.0000       0.731502        19.9052 
 439   0.0000       0.732924        19.9439 
 440   0.0000       0.735485        20.0136 
 441   0.0000       0.741481        20.1767 
 442   0.0000       0.742064        20.1926 
 443   0.0000       0.742879        20.2148 
 444   0.0000       0.747653        20.3447 
 445   0.0000       0.750346        20.4180 
 446   0.0000       0.752334        20.4721 
 447   0.0000       0.753364        20.5001 
 448   0.0000       0.758393        20.6369 
 449   0.0000       0.759992        20.6804 
 450   0.0000       0.761182        20.7128 
 451   0.0000       0.761679        20.7263 
 452   0.0000       0.767795        20.8928 
 453   0.0000       0.768572        20.9139 
 454   0.0000       0.768636        20.9157 
 455   0.0000       0.769569        20.9410 
 456   0.0000       0.771484        20.9932 
 457   0.0000       0.772650        21.0249 
 458   0.0000       0.774126        21.0650 
 459   0.0000       0.777913        21.1681 
 460   0.0000       0.783480        21.3196 
 461   0.0000       0.784819        21.3560 
 462   0.0000       0.787765        21.4362 
 463   0.0000       0.788351        21.4521 
 464   0.0000       0.790898        21.5214 
 465   0.0000       0.793736        21.5987 
 466   0.0000       0.793826        21.6011 
 467   0.0000       0.794797        21.6275 
 468   0.0000       0.798055        21.7162 
 469   0.0000       0.800091        21.7716 
 470   0.0000       0.801567        21.8117 
 471   0.0000       0.802151        21.8276 
 472   0.0000       0.804661        21.8959 
 473   0.0000       0.805148        21.9092 
 474   0.0000       0.808170        21.9914 
 475   0.0000       0.808855        22.0101 
 476   0.0000       0.810174        22.0460 
 477   0.0000       0.810341        22.0505 
 478   0.0000       0.813246        22.1295 
 479   0.0000       0.815731        22.1972 
 480   0.0000       0.817433        22.2435 
 481   0.0000       0.819723        22.3058 
 482   0.0000       0.820150        22.3174 
 483   0.0000       0.820923        22.3384 
 484   0.0000       0.822868        22.3914 
 485   0.0000       0.823507        22.4088 
 486   0.0000       0.823876        22.4188 
 487   0.0000       0.826642        22.4941 
 488   0.0000       0.833488        22.6804 
 489   0.0000       0.834273        22.7017 
 490   0.0000       0.834719        22.7139 
 491   0.0000       0.836908        22.7734 
 492   0.0000       0.836992        22.7757 
 493   0.0000       0.838629        22.8203 
 494   0.0000       0.839275        22.8378 
 495   0.0000       0.839593        22.8465 
 496   0.0000       0.841087        22.8871 
 497   0.0000       0.844461        22.9789 
 498   0.0000       0.844723        22.9861 
 499   0.0000       0.846787        23.0423 
 500   0.0000       0.848121        23.0786 
 501   0.0000       0.849656        23.1203 
 502   0.0000       0.853351        23.2209 
 503   0.0000       0.856528        23.3073 
 504   0.0000       0.858622        23.3643 
 505   0.0000       0.859818        23.3968 
 506   0.0000       0.863340        23.4927 
 507   0.0000       0.863455        23.4958 
 508   0.0000       0.864086        23.5130 
 509   0.0000       0.864796        23.5323 
 510   0.0000       0.869346        23.6561 
 511   0.0000       0.869990        23.6736 
[...]
sum of pair energies of crude MP2 skipped pairs only  ...      -0.007227309521 Eh
sum of MP2 pair energies for pairs that were not kept ...      -0.091852363388 Eh
sum of PNO error estimates for the kept pairs         ...      -0.037600296583 Eh
                                                          --------------------
sum of all corrections                                         -0.129458072757
Initial total correlation energy                               -7.211198030204
Thresholds for map construction and integral transformation for fine MP2 and CCSD(T) calculation:
   TCutMKN   ...     1.0e-03
   TCutDO    ...     1.0e-02
   TCutPairs ...     1.0e-04
   TCutCMO   ...     1.0e-03
   TCutCPAO  ...     1.0e-03

Thresholds for map construction and integral transformation for strong Triples:
   TCutMKN   ...     1.0e-02
   TCutDO    ...     2.0e-02
   TCutCMO   ...     1.0e-03
   TCutCPAO  ...     1.0e-03

Thresholds for map construction and integral transformation for weak Triples:
   TCutMKN   ...     1.0e-01
   TCutDO    ...     4.0e-02
   TCutCMO   ...     1.0e-03
   TCutCPAO  ...     1.0e-03

--------------------------------
LOCAL RI TRANSFORMATION (IAVPAO)
--------------------------------

Orbital window:      48 to 155
Number of PAOs:    2352
Basis functions:   2352 (720 shells)
Aux. functions:    5616 (1488 shells)
Use SHARK:           on

Processing maps (0.2 sec)
Average map sizes:
   Aux shells -> MOs             105.5
   Aux shells -> PAOs           2352.0
   MOs        -> AO shells       716.9
   PAOs       -> AO shells       720.0

Calculating integrals (72.1 sec, 10676.226 MB)
Sorting integrals (12.9 sec, 10676.163 MB)
Total time for the integral transformation: 85.7 sec
--------------------------------
INITIAL GUESS AND PNO GENERATION
--------------------------------

PNO truncation parameters                   .... 
    PAOOverlapThresh   =        1.000e-08

    TCutPairs          =        1.000e-04
    TCutPNO            =        3.330e-07
    TCutPNOSingles     =        9.990e-09
    TCutMP2Pairs       =        1.000e-05
    TCutMKN            =        1.000e-03
    TCutDO             =        1.000e-02

Pair selection                          .... not used
Type of local MP2 treatment                 .... semi-local MP2
Strategy for PNO selection                  .... occupation number selection
Pair density normalization                  .... MP2 norm
Spin component scaling                      .... not used

   .... Finished loop over pairs

 PNO Occupation Number Statistics: 
  | Av. % of trace(Dij) retained        ...  96.176770499687
  | sigma^2 in % of trace(Dij) retained ...   9.91e+00
  | Av. % of trace(Di) retained         ...  99.997945297852
  | sigma^2 in % of trace(Di) retained  ...   1.11e-06
 Distributions of % trace(Dij) recovered:
  |       >= 99.9  ...   372 (  9.7 % of all pairs)
  |   [80.0, 90.0) ...   195 (  5.1 % of all pairs)
  |   [90.0, 99.0) ...  2648 ( 68.9 % of all pairs)
  |   [99.0, 99.9) ...   630 ( 16.4 % of all pairs)
 Distributions of % trace(Di) recovered :
  |       >= 99.9  ...   108 (100.0 % of all I-pairs )

Making pair pair interaction lists          ... done

                       ===========================
                       1689 OF 3845 PAIRS ARE KEPT
                       ===========================

Total time spent in the initial guess                 ...  1299.843 sec
SL-MP2 correlation energy (all non-screened pairs)    ...      -7.215511946931 Eh

Initial PNO correlation energy                        ...      -7.092602732477 Eh
sum of pair energies estimated for screened out pairs ...      -0.007232722307 Eh
sum of MP2 pair energies for pairs that were not kept ...      -0.084859356607 Eh
sum of PNO error estimates for the kept pairs         ...      -0.038426349757 Eh
                                                          --------------------
sum of all corrections                                         -0.130518428671
Initial total correlation energy                               -7.223121161148
Thresholds for map construction and integral transformation for fine MP2 and CCSD(T) calculation:
   TCutMKN   ...     1.0e-03
   TCutDO    ...     1.0e-02
   TCutPairs ...     1.0e-04
   TCutCMO   ...     1.0e-03
   TCutCPAO  ...     1.0e-03

Time for aux screen maps:            0.047
Time for maps after fine MP2:            0.269
-----------------------------
LOCAL RI TRANSFORMATION (IJV)
-----------------------------

Orbital window:      48 to 155
Basis functions:   2352 (720 shells)
Aux. functions:    5616 (1488 shells)
Use SHARK:           on

Processing maps (0.0 sec)
Average map sizes:
   Aux shells -> MOs(i)           90.0
   Aux shells -> MOs(j)          108.0
   MOs        -> AO shells       716.9

Calculating integrals (57.3 sec, 422.170 MB)
Sorting integrals (1.0 sec, 422.107 MB)
Total time for the integral transformation: 58.3 sec
--------------------------------
LOCAL RI TRANSFORMATION (VABPAO)
--------------------------------

Number of PAOs:    2352
Basis functions:   2352 (720 shells)
Aux. functions:    5616 (1488 shells)
Use SHARK:           on

Processing maps (0.0 sec)
Average map sizes:
   Aux shells -> PAOs           2330.8
   PAOs       -> AO shells       720.0

Calculating integrals (382.4 sec, 233547.893 MB)
Finished


-------------------------------------
Pair Pair Term precalculation with     
RI-(ij|mn) and (im|jn) transformation  
ON THE FLY                             
-------------------------------------

   IBatch   1 (of   5)              ... done ( 1522.258 sec)
   IBatch   2 (of   5)              ... done ( 1556.951 sec)
   IBatch   3 (of   5)              ... done ( 1986.550 sec)
   IBatch   4 (of   5)              ... done ( 2631.797 sec)
   IBatch   5 (of   5)              ... done ( 3122.770 sec)
Total EXT                           ...       10820.327 sec

---------------------
RI-PNO TRANSFORMATION
---------------------

Total Number of PNOs                   ... 64742
Average number of PNOs per pair        ...    38
Maximal number of PNOs per pair        ...    98
   #pairs with  1 -  5 PNOs   :    0
   #pairs with  6 - 10 PNOs   :   41
   #pairs with 11 - 15 PNOs   :  160
   #pairs with 16 - 20 PNOs   :  190
   #pairs with 21 - 25 PNOs   :   74
   #pairs with 26 - 30 PNOs   :  140
   #pairs with 31 - 35 PNOs   :  300
   #pairs with 36 - 40 PNOs   :  220
   #pairs with 41 - 45 PNOs   :   48
   #pairs with 46 - 50 PNOs   :   84
   #pairs with 51 - 55 PNOs   :   24
   #pairs with 56 - 60 PNOs   :   48
   #pairs with 61 - 65 PNOs   :  144
   #pairs with 66 - 70 PNOs   :   24
   #pairs with 71 - 75 PNOs   :  120
   #pairs with 76 - 80 PNOs   :   48
   #pairs with 81 - 85 PNOs   :   12
   #pairs with > 96 PNOs      :   12

Generation of (ij|ab)[P] integrals            ... on
Generation of (ia|bc)[P],(ja|bc)[P] integrals ... on
Storage of 3 and 4 external integrals         ... on
Generation of ALL (ka|bc)[P] integrals        ... on
Keep RI integrals in memory                   ... off

Ibatch:  1 (of  1)
Starting 2-4 index PNO integral generation ... done

Timings:
Total PNO integral transformation time     ...       6290.908 sec
Size of the 3-external file                ...      1391 MB
Size of the 4-external file                ...     11171 MB
Size of the IKJL file                      ...         3 MB
Size of the all 3-external file            ...     71802 MB
Size of the 1-external file                ...       153 MB

Making pair/pair overlap matrices          ... done ( 1678.002 sec)
Size of the pair overlap file              ... 22589 MB
Redoing the guess amplitudes               ... done (    0.495 sec)

-------------------------
FINAL STARTUP INFORMATION
-------------------------

E(0)                                       ...  -1832.426041514
E(SL-MP2)                                  ...     -7.215511947
E(SL-MP2) including corrections            ...     -7.223121161
Initial E(tot)                             ...  -1839.649162675
<T|T>                                      ...      2.210007516
Number of pairs included                   ... 1689
Total number of pairs                      ... 5886

------------------------------------------------
                  RHF COUPLED CLUSTER ITERATIONS
------------------------------------------------

Number of PNO amplitudes to be optimized   ...      3146052
Number of non-PNO amplitudes               ...   8145060624
Untruncated number of regular amplitudes   ...  28384740576

Iter       E(tot)           E(Corr)          Delta-E          Residual     Time
  0  -1839.649349905     -7.092789963      0.122721984      0.009071864  218.41
                           *** Turning on DIIS ***
  1  -1839.800815566     -7.244255623     -0.151465661      0.006806132  216.60
  2  -1839.959274658     -7.402714716     -0.158459093      0.003435856  216.41
  3  -1839.991687330     -7.435127387     -0.032412671      0.001964227  216.09
  4  -1840.000951423     -7.444391480     -0.009264093      0.000903669  216.86
  5  -1840.003948991     -7.447389049     -0.002997569      0.000310876  215.98
  6  -1840.004721168     -7.448161225     -0.000772176      0.000100989  215.70
  7  -1840.004794261     -7.448234318     -0.000073093      0.000060246  216.06
  8  -1840.004835866     -7.448275923     -0.000041605      0.000036064  215.87
  9  -1840.004814946     -7.448255004      0.000020919      0.000018414  215.88
 10  -1840.004827809     -7.448267867     -0.000012862      0.000006885  215.99
 11  -1840.004828992     -7.448269049     -0.000001183      0.000002230  215.85
 12  -1840.004830906     -7.448270964     -0.000001915      0.000001263  216.32
 13  -1840.004830795     -7.448270853      0.000000111      0.000000781  216.51
               --- The Coupled-Cluster iterations have converged ---

----------------------
COUPLED CLUSTER ENERGY
----------------------

E(0)                                       ...  -1832.426041514
E(CORR)(strong-pairs)                      ...     -7.448270853
E(CORR)(weak-pairs)                        ...     -0.130518429
E(CORR)(corrected)                         ...     -7.578789282
E(TOT)                                     ...  -1840.004830795
Singles Norm <S|S>**1/2                    ...      0.147327559  
T1 diagnostic                              ...      0.010024371  

------------------
LARGEST AMPLITUDES
------------------
  62->156  62->156       0.042462
 117->156 117->156       0.042462
 123->156 123->156       0.042462
  67->156  67->156       0.042462
 122->156 122->156       0.042447
 118->156 118->156       0.042447
  66->156  66->156       0.042447
  63->156  63->156       0.042447
  75->156  75->156       0.042443
 109->156 109->156       0.042443
 106->156 106->156       0.042443
  79->156  79->156       0.042443
 101->156 101->156       0.042009
 113->156 113->156       0.042009
  71->156  71->156       0.042009
  57->156  57->156       0.042009


-------------------------------------------
DLPNO BASED TRIPLES CORRECTION
-------------------------------------------

Singles multiplier          ...  1.000000
TCutTNO                     ... 1.000e-09
TCutMP2Pairs                ... 1.000e-05
TCutDOStrong                ... 2.000e-02
TCutMKNStrong               ... 1.000e-02
TCutDOWeak                  ... 4.000e-02
TCutMKNWeak                 ... 1.000e-01

Fragment selection                          .... not used
Fock matrix occ-virt block is zero --> Setting DT_in_Triples to false.
Number of Triples that are to be computed   ...     29736

 . . . . . . . . .
10% done  
20% done               (   7352.284 sec)
 . . . . . . . . .
30% done  
40% done  
50% done               (  10174.051 sec)
 . . . . . . . . .
60% done  
70% done  
80% done  
90% done               (   7899.910 sec)
Triples timings:
Total time for T0               ... 26343.737 sec
Total time for Iterative (T)    ...     0.000 sec
Total time of overall (T)       ... 26637.399 sec

Triples List generation         ...     0.000 sec
TNO generation                  ...   916.735 sec
Pair density generation         ...     0.172 sec
Look up tables                  ...     0.002 sec
Generating 3-index integrals    ... 19828.748 sec
  Make 4-ind.int. from 3-ind.int...   538.026 sec
  Projecting amplitudes (D + S) ...  4740.807 sec
  Downprojecting integrals      ...     0.041 sec
  Energy contr. (sum over a,b,c)...    53.388 sec
Fitting ET(->0)                 ...     0.000 sec

Everything after 3-index        ...  5597.497 sec

Timing details:
 TNO integrals                  ... 20323.326 sec
   Reading 3-index integrals    ...   694.322 sec
   Sorting integrals            ...  3195.180 sec
       Sorting integrals 1      ...     0.037 sec
       Sorting integrals 2      ...  3079.239 sec
       Sorting integrals 3      ...    27.116 sec
       Sorting integrals 4      ...     3.403 sec
       Sorting integrals 5      ...    18.579 sec
       Sorting integrals 6      ...    66.807 sec
   Calculating local VM**-1/2   ...    76.710 sec
   Orthogonal. integrals        ...    97.859 sec
   Multipl. 3-index integrals   ... 16259.255 sec
   All concerning IRIab (w/TNO) ...   278.499 sec

 Calculate W0/W1                ...   265.157 sec
 W 3-ext contribution           ...   121.606 sec
 W 3-int contribution           ...    73.191 sec
 Sorting W                      ...    63.815 sec

 V exchange contribution        ...    13.975 sec

 Timings for Triples without generation
     of 3-index integrals       ...  5597.461 sec
       0 weak pairs             ...  3367.972 sec
       1 weak pair              ...  2229.489 sec
       2 weak pairs             ...     0.000 sec
       3 weak pairs             ...     0.000 sec
  Extra time for extrapolation  ...     0.000 sec

Number of Triples   (0, 1, 2, 3 weak pairs; overall):  13098   16638       0       0  ( 29736)
Number of Atoms     (0, 1, 2, 3 weak pairs; overall):   22.2    15.5     0.0     0.0  (    72)
Number of PAOs      (0, 1, 2, 3 weak pairs; overall):  853.5   589.1     0.0     0.0  (  2352)
Number of AuxFcns   (0, 1, 2, 3 weak pairs; overall): 1384.4   718.1     0.0     0.0  (  5616)
Number of TNOs      (0, 1, 2, 3 weak pairs         ):  113.7    75.4     0.0     0.0
Aver. Number of NTNO, Atoms, PAOs, AuxFcns / Triples:  29736    92.3    18.4   705.5  1011.6

Triples Correction (T)                     ...     -0.420031010
Final correlation energy                   ...     -7.998820292
E(CCSD)                                    ...  -1840.004830795
E(CCSD(T))                                 ...  -1840.424861806



--------------------------------------------------------------------------------
                                    TIMINGS
--------------------------------------------------------------------------------


Total execution time                   ...    51279.698 sec

Localization of occupied MO's          ...       21.949 sec (  0.0%)
Fock Matrix Formation                  ...      205.698 sec (  0.4%)
Global overlap, Fock, MKN matrices     ...        9.748 sec (  0.0%)
Differential overlap integrals         ...       21.178 sec (  0.0%)
Organizing maps                        ...        0.892 sec (  0.0%)
RI 3-index integral generations        ...      612.217 sec (  1.2%)
RI-PNO integral transformation         ...    18865.863 sec ( 36.8%)
Initial Guess                          ...     1848.401 sec (  3.6%)
DIIS Solver                            ...        3.518 sec (  0.0%)
State Vector Update                    ...        0.211 sec (  0.0%)
Sigma-vector construction              ...     3024.802 sec (  5.9%)
  <0|H|D>                              ...        0.007 sec (  0.0% of sigma)
  <D|H|D>(0-ext)                       ...      139.740 sec (  4.6% of sigma)
  <D|H|D>(2-ext Fock)                  ...        0.109 sec (  0.0% of sigma)
  <D|H|D>(2-ext)                       ...     1210.862 sec ( 40.0% of sigma)
  <D|H|D>(4-ext)                       ...      100.688 sec (  3.3% of sigma)
  <D|H|D>(4-ext-corr)                  ...      856.456 sec ( 28.3% of sigma)
  CCSD doubles correction              ...        3.095 sec (  0.1% of sigma)
  <S|H|S>                              ...       35.880 sec (  1.2% of sigma)
  <S|H|D>(1-ext)                       ...       13.811 sec (  0.5% of sigma)
  <D|H|S>(1-ext)                       ...        0.285 sec (  0.0% of sigma)
  <S|H|D>(3-ext)                       ...        2.138 sec (  0.1% of sigma)
  CCSD singles correction              ...        0.010 sec (  0.0% of sigma)
  Fock-dressing                        ...      409.820 sec ( 13.5% of sigma)
  Singles amplitudes                   ...       40.814 sec (  1.3% of sigma)
  (ik|jl)-dressing                     ...      107.153 sec (  3.5% of sigma)
  (ij|ab),(ia|jb)-dressing             ...       20.546 sec (  0.7% of sigma)
  Pair energies                        ...        0.120 sec (  0.0% of sigma)
Total Time for computing (T)           ...    26637.493 sec ( 51.9% of ALL)


Maximum memory used throughout the entire MDCI-calculation: 50277.6 MB

-------------------------   --------------------
FINAL SINGLE POINT ENERGY     -1840.424861805561
-------------------------   --------------------


                            ***************************************
                            *     ORCA property calculations      *
                            ***************************************


  WARNING: The energy has been calculated at the MDCI level but the densities
           used in the property calculations are still SCF densities
           MDCI response densities have not been calculated 
           use %mdci Density linearized end
           or  %mdci Density unrelaxed end
           or  %mdci Density orbopt end

                                    ---------------------
                                    Active property flags
                                    ---------------------
   (+) Dipole Moment


------------------------------------------------------------------------------
                       ORCA ELECTRIC PROPERTIES CALCULATION
------------------------------------------------------------------------------

Dipole Moment Calculation                       ... on
Quadrupole Moment Calculation                   ... off
Polarizability Calculation                      ... off
GBWName                                         ... coronene_dim_norm_dfavtz.gbw
Electron density                                ... coronene_dim_norm_dfavtz.scfp
The origin for moment calculation is the CENTER OF MASS  = (-0.000000, -0.000000 -0.000000)

-------------
DIPOLE MOMENT
-------------
                                X             Y             Z
Electronic contribution:      0.00000       0.00000       0.00000
Nuclear contribution   :      0.00000       0.00000       0.00000
                        -----------------------------------------
Total Dipole Moment    :      0.00000       0.00000       0.00000
                        -----------------------------------------
Magnitude (a.u.)       :      0.00000
Magnitude (Debye)      :      0.00000



--------------------
Rotational spectrum 
--------------------
 
Rotational constants in cm-1:     0.003774     0.003262     0.002508 
Rotational constants in MHz :   113.142126    97.782250    75.177976 

 Dipole components along the rotational axes: 
x,y,z [a.u.] :    -0.000000     0.000000    -0.000000 
x,y,z [Debye]:    -0.000000     0.000000    -0.000000 

 

Timings for individual modules:

Sum of individual times         ...    53721.446 sec (= 895.357 min)
GTO integral calculation        ...       14.299 sec (=   0.238 min)   0.0 %
SCF iterations                  ...     2399.900 sec (=  39.998 min)   4.5 %
MDCI module                     ...    51307.246 sec (= 855.121 min)  95.5 %
                             ****ORCA TERMINATED NORMALLY****
TOTAL RUN TIME: 0 days 14 hours 55 minutes 29 seconds 402 msec
