
                                 *****************
                                 * O   R   C   A *
                                 *****************

                                            #,                                       
                                            ###                                      
                                            ####                                     
                                            #####                                    
                                            ######                                   
                                           ########,                                 
                                     ,,################,,,,,                         
                               ,,#################################,,                 
                          ,,##########################################,,             
                       ,#########################################, ''#####,          
                    ,#############################################,,   '####,        
                  ,##################################################,,,,####,       
                ,###########''''           ''''###############################       
              ,#####''   ,,,,##########,,,,          '''####'''          '####       
            ,##' ,,,,###########################,,,                        '##       
           ' ,,###''''                  '''############,,,                           
         ,,##''                                '''############,,,,        ,,,,,,###''
      ,#''                                            '''#######################'''  
     '                                                          ''''####''''         
             ,#######,   #######,   ,#######,      ##                                
            ,#'     '#,  ##    ##  ,#'     '#,    #''#        ######   ,####,        
            ##       ##  ##   ,#'  ##            #'  '#       #        #'  '#        
            ##       ##  #######   ##           ,######,      #####,   #    #        
            '#,     ,#'  ##    ##  '#,     ,#' ,#      #,         ##   #,  ,#        
             '#######'   ##     ##  '#######'  #'      '#     #####' # '####'        



                  #######################################################
                  #                        -***-                        #
                  #          Department of theory and spectroscopy      #
                  #    Directorship and core code : Frank Neese         #
                  #        Max Planck Institute fuer Kohlenforschung    #
                  #                Kaiser Wilhelm Platz 1               #
                  #                 D-45470 Muelheim/Ruhr               #
                  #                      Germany                        #
                  #                                                     #
                  #                  All rights reserved                #
                  #                        -***-                        #
                  #######################################################


                         Program Version 5.0.3 -  RELEASE  -


 With contributions from (in alphabetic order):
   Daniel Aravena         : Magnetic Suceptibility
   Michael Atanasov       : Ab Initio Ligand Field Theory (pilot matlab implementation)
   Alexander A. Auer      : GIAO ZORA, VPT2 properties, NMR spectrum
   Ute Becker             : Parallelization
   Giovanni Bistoni       : ED, misc. LED, open-shell LED, HFLD
   Martin Brehm           : Molecular dynamics
   Dmytro Bykov           : SCF Hessian
   Vijay G. Chilkuri      : MRCI spin determinant printing, contributions to CSF-ICE
   Dipayan Datta          : RHF DLPNO-CCSD density
   Achintya Kumar Dutta   : EOM-CC, STEOM-CC
   Dmitry Ganyushin       : Spin-Orbit,Spin-Spin,Magnetic field MRCI
   Miquel Garcia          : C-PCM and meta-GGA Hessian, CC/C-PCM, Gaussian charge scheme
   Yang Guo               : DLPNO-NEVPT2, F12-NEVPT2, CIM, IAO-localization
   Andreas Hansen         : Spin unrestricted coupled pair/coupled cluster methods
   Benjamin Helmich-Paris : MC-RPA, TRAH-SCF, COSX integrals
   Lee Huntington         : MR-EOM, pCC
   Robert Izsak           : Overlap fitted RIJCOSX, COSX-SCS-MP3, EOM
   Marcus Kettner         : VPT2
   Christian Kollmar      : KDIIS, OOCD, Brueckner-CCSD(T), CCSD density, CASPT2, CASPT2-K
   Simone Kossmann        : Meta GGA functionals, TD-DFT gradient, OOMP2, MP2 Hessian
   Martin Krupicka        : Initial AUTO-CI
   Lucas Lang             : DCDCAS
   Marvin Lechner         : AUTO-CI (C++ implementation), FIC-MRCC
   Dagmar Lenk            : GEPOL surface, SMD
   Dimitrios Liakos       : Extrapolation schemes; Compound Job, initial MDCI parallelization
   Dimitrios Manganas     : Further ROCIS development; embedding schemes
   Dimitrios Pantazis     : SARC Basis sets
   Anastasios Papadopoulos: AUTO-CI, single reference methods and gradients
   Taras Petrenko         : DFT Hessian,TD-DFT gradient, ASA, ECA, R-Raman, ABS, FL, XAS/XES, NRVS
   Peter Pinski           : DLPNO-MP2, DLPNO-MP2 Gradient
   Christoph Reimann      : Effective Core Potentials
   Marius Retegan         : Local ZFS, SOC
   Christoph Riplinger    : Optimizer, TS searches, QM/MM, DLPNO-CCSD(T), (RO)-DLPNO pert. Triples
   Tobias Risthaus        : Range-separated hybrids, TD-DFT gradient, RPA, STAB
   Michael Roemelt        : Original ROCIS implementation
   Masaaki Saitow         : Open-shell DLPNO-CCSD energy and density
   Barbara Sandhoefer     : DKH picture change effects
   Avijit Sen             : IP-ROCIS
   Kantharuban Sivalingam : CASSCF convergence, NEVPT2, FIC-MRCI
   Bernardo de Souza      : ESD, SOC TD-DFT
   Georgi Stoychev        : AutoAux, RI-MP2 NMR, DLPNO-MP2 response
   Willem Van den Heuvel  : Paramagnetic NMR
   Boris Wezisla          : Elementary symmetry handling
   Frank Wennmohs         : Technical directorship


 We gratefully acknowledge several colleagues who have allowed us to
 interface, adapt or use parts of their codes:
   Stefan Grimme, W. Hujo, H. Kruse, P. Pracht,  : VdW corrections, initial TS optimization,
                  C. Bannwarth, S. Ehlert          DFT functionals, gCP, sTDA/sTD-DF
   Ed Valeev, F. Pavosevic, A. Kumar             : LibInt (2-el integral package), F12 methods
   Garnet Chan, S. Sharma, J. Yang, R. Olivares  : DMRG
   Ulf Ekstrom                                   : XCFun DFT Library
   Mihaly Kallay                                 : mrcc  (arbitrary order and MRCC methods)
   Jiri Pittner, Ondrej Demel                    : Mk-CCSD
   Frank Weinhold                                : gennbo (NPA and NBO analysis)
   Christopher J. Cramer and Donald G. Truhlar   : smd solvation model
   Lars Goerigk                                  : TD-DFT with DH, B97 family of functionals
   V. Asgeirsson, H. Jonsson                     : NEB implementation
   FAccTs GmbH                                   : IRC, NEB, NEB-TS, DLPNO-Multilevel, CI-OPT
                                                   MM, QMMM, 2- and 3-layer-ONIOM, Crystal-QMMM,
                                                   LR-CPCM, SF, NACMEs, symmetry and pop. for TD-DFT,
                                                   nearIR, NL-DFT gradient (VV10), updates on ESD,
                                                   ML-optimized integration grids
   S Lehtola, MJT Oliveira, MAL Marques          : LibXC Library
   Liviu Ungur et al                             : ANISO software


 Your calculation uses the libint2 library for the computation of 2-el integrals
 For citations please refer to: http://libint.valeyev.net

 Your ORCA version has been built with support for libXC version: 5.1.0
 For citations please refer to: https://tddft.org/programs/libxc/

 This ORCA versions uses:
   CBLAS   interface :  Fast vector & matrix operations
   LAPACKE interface :  Fast linear algebra routines
   SCALAPACK package :  Parallel linear algebra routines
   Shared memory     :  Shared parallel matrices
   BLAS/LAPACK       :  OpenBLAS 0.3.15  USE64BITINT DYNAMIC_ARCH NO_AFFINITY SkylakeX SINGLE_THREADED
        Core in use  :  SkylakeX
   Copyright (c) 2011-2014, The OpenBLAS Project


================================================================================

----- Orbital basis set information -----
Your calculation utilizes the basis: cc-pVDZ 
       H, B-Ne : Obtained from the ccRepo (grant-hill.group.shef.ac.uk/ccrepo) Feb. 2017
                 T. H. Dunning, Jr., J. Chem. Phys. 90, 1007 (1989)
            He : Obtained from the ccRepo (grant-hill.group.shef.ac.uk/ccrepo) Feb. 2017
                 D. E. Woon, T. H. Dunning, Jr., J. Chem. Phys. 100, 2975 (1994)
  Li-Be, Na-Mg : Obtained from the ccRepo (grant-hill.group.shef.ac.uk/ccrepo) Feb. 2017
                 B. P. Prascher, D. E. Woon, K. A. Peterson, T. H. Dunning, Jr., A. K. Wilson, Theor. Chem. Acc. 128, 69 (2011)
         Al-Ar : Obtained from the ccRepo (grant-hill.group.shef.ac.uk/ccrepo) Feb. 2017
                 D. E. Woon, T. H. Dunning, Jr., J. Chem. Phys. 98, 1358 (1993)
            Ca : Obtained from the Peterson Research Group Website (tyr0.chem.wsu.edu/~kipeters) Feb. 2017
                 J. Koput, K. A. Peterson, J. Phys. Chem. 106, 9595 (2002)
         Sc-Zn : Obtained from the ccRepo (grant-hill.group.shef.ac.uk/ccrepo) Feb. 2017
                 N. B. Balabanov, K. A. Peterson, J. Chem. Phys. 123, 064107 (2005)
                 N. B. Balabanov, K. A. Peterson, J. Chem. Phys. 125, 074110 (2006)
         Ga-Kr : Obtained from the ccRepo (grant-hill.group.shef.ac.uk/ccrepo) Feb. 2017
                 A. K. Wilson, D. E. Woon, K. A. Peterson, T. H. Dunning, Jr., J. Chem. Phys. 110, 7667 (1999)

The basis set includes element-specific modifications.

----- AuxC basis set information -----
Your calculation utilizes the auxiliary basis: cc-pVDZ/C 
  H-He, B, Ne, Al-Ar, Ga-Br : Obtained from the EMSL Basis Set Exchange (bse.pnl.gov) Feb. 2017
                              F. Weigend, A. Kohn, C. Hattig, J. Chem. Phys. 116, 3175 (2002)
               Li-Be, Na-Mg : Obtained from the EMSL Basis Set Exchange (bse.pnl.gov) Feb. 2017
                              C. Haettig, Phys. Chem. Chem. Phys. 7, 59 (2005)
                        C-F : Obtained from the EMSL Basis Set Exchange (bse.pnl.gov) Feb. 2017
                              C. Haettig, Phys. Chem. Chem. Phys. 7, 59 (2005)
                              F. Weigend, A. Kohn, C. Hattig, J. Chem. Phys. 116, 3175 (2002)
                         Kr : Obtained from the TURBOMOLE 7.0 basis set library
                              F. Weigend, A. Kohn, C. Hattig, J. Chem. Phys. 116, 3175 (2002)
                              S function revised in Sep. 2009

The basis set includes element-specific modifications.

================================================================================
                                        WARNINGS
                       Please study these warnings very carefully!
================================================================================


WARNING: Post HF methods need fully converged wavefunctions
  ===> : Setting SCFConvForced true
         You can overwrite this default with %scf ConvForced false 


WARNING: MDCI localization with Augmented Hessian Foster-Boys
  ===> : Switching off randomization!

INFO   : the flag for use of the SHARK integral package has been found!

================================================================================
                                       INPUT FILE
================================================================================
NAME = coronene_mon_davdz.inp
|  1> ! DLPNO-CCSD(T) cc-pVDZ cc-pVDZ/C VeryTightSCF
|  2> %PAL NPROCS 12 END
|  3> %basis
|  4>    AddGTO 6
|  5>      D   1
|  6>       1         0.15100000000          1.0000000000
|  7>    end
|  8>    AddAuxCGTO 6
|  9>      D   1
| 10>       1         0.11021124893          1.0000000000
| 11>      F   1
| 12>       1         0.31714624829          1.0000000000
| 13>    end
| 14> end
| 15> %scf
| 16>    MaxIter 2000
| 17> end
| 18> %mp2 MaxLocIter 800 end
| 19> %mdci TCutPNO 1e-8
| 20>       TCutPairs 1e-6
| 21> end
| 22> %maxcore 50000
| 23> 
| 24> 
| 25> * xyz 0 1
| 26> C : -1.487532 -1.231543 -1.729000
| 27> C : -0.065468 -1.231543 -1.729000
| 28> C :  0.645564 0.000000 -1.729000
| 29> C : -0.065468 1.231543 -1.729000
| 30> C : -1.487532 1.231543 -1.729000
| 31> C : -2.198564 0.000000 -1.729000
| 32> C :  0.642292 -2.457420 -1.729000
| 33> C : -0.093378 -3.670823 -1.729000
| 34> C : -1.459622 -3.670823 -1.729000
| 35> C : -2.195292 -2.457420 -1.729000
| 36> C : -3.614084 0.000000 -1.729000
| 37> C : -4.297087 -1.243810 -1.729000
| 38> C : -3.613965 -2.427013 -1.729000
| 39> C : -4.297087 1.243810 -1.729000
| 40> C : -3.613965 2.427013 -1.729000
| 41> C : -2.195292 2.457420 -1.729000
| 42> C : -1.459622 3.670823 -1.729000
| 43> C : -0.093378 3.670823 -1.729000
| 44> C :  0.642292 2.457420 -1.729000
| 45> C :  2.060965 2.427013 -1.729000
| 46> C :  2.744087 1.243810 -1.729000
| 47> C :  2.061084 0.000000 -1.729000
| 48> C :  2.744087 -1.243810 -1.729000
| 49> C :  2.060965 -2.427013 -1.729000
| 50> H :  0.449580 -4.607417 -1.729000
| 51> H : -2.002581 -4.607417 -1.729000
| 52> H : -4.153600 -3.365525 -1.729000
| 53> H : -5.379680 -1.241892 -1.729000
| 54> H : -5.379680 1.241892 -1.729000
| 55> H : -4.153600 3.365525 -1.729000
| 56> H : -2.002581 4.607417 -1.729000
| 57> H :  0.449580 4.607417 -1.729000
| 58> H :  2.600600 3.365525 -1.729000
| 59> H :  3.826680 1.241892 -1.729000
| 60> H :  3.826680 -1.241892 -1.729000
| 61> H :  2.600600 -3.365525 -1.729000
| 62> C    0.065468 -1.231543 1.729000
| 63> C    1.487532 -1.231543 1.729000
| 64> C    2.198564 0.000000 1.729000
| 65> C    1.487532 1.231543 1.729000
| 66> C    0.065468 1.231543 1.729000
| 67> C   -0.645564 0.000000 1.729000
| 68> C    2.195292 -2.457420 1.729000
| 69> C    1.459622 -3.670823 1.729000
| 70> C    0.093378 -3.670823 1.729000
| 71> C   -0.642292 -2.457420 1.729000
| 72> C   -2.061084 0.000000 1.729000
| 73> C   -2.744087 -1.243810 1.729000
| 74> C   -2.060965 -2.427013 1.729000
| 75> C   -2.744087 1.243810 1.729000
| 76> C   -2.060965 2.427013 1.729000
| 77> C   -0.642292 2.457420 1.729000
| 78> C    0.093378 3.670823 1.729000
| 79> C    1.459622 3.670823 1.729000
| 80> C    2.195292 2.457420 1.729000
| 81> C    3.613965 2.427013 1.729000
| 82> C    4.297087 1.243810 1.729000
| 83> C    3.614084 0.000000 1.729000
| 84> C    4.297087 -1.243810 1.729000
| 85> C    3.613965 -2.427013 1.729000
| 86> H    2.002581 -4.607417 1.729000
| 87> H   -0.449580 -4.607417 1.729000
| 88> H   -2.600600 -3.365525 1.729000
| 89> H   -3.826680 -1.241892 1.729000
| 90> H   -3.826680 1.241892 1.729000
| 91> H   -2.600600 3.365525 1.729000
| 92> H   -0.449580 4.607417 1.729000
| 93> H    2.002581 4.607417 1.729000
| 94> H    4.153600 3.365525 1.729000
| 95> H    5.379680 1.241892 1.729000
| 96> H    5.379680 -1.241892 1.729000
| 97> H    4.153600 -3.365525 1.7290
| 98> *
| 99> 
|100>                          ****END OF INPUT****
================================================================================

                       ****************************
                       * Single Point Calculation *
                       ****************************

---------------------------------
CARTESIAN COORDINATES (ANGSTROEM)
---------------------------------
  C     -1.487532   -1.231543   -1.729000
  C     -0.065468   -1.231543   -1.729000
  C      0.645564    0.000000   -1.729000
  C     -0.065468    1.231543   -1.729000
  C     -1.487532    1.231543   -1.729000
  C     -2.198564    0.000000   -1.729000
  C      0.642292   -2.457420   -1.729000
  C     -0.093378   -3.670823   -1.729000
  C     -1.459622   -3.670823   -1.729000
  C     -2.195292   -2.457420   -1.729000
  C     -3.614084    0.000000   -1.729000
  C     -4.297087   -1.243810   -1.729000
  C     -3.613965   -2.427013   -1.729000
  C     -4.297087    1.243810   -1.729000
  C     -3.613965    2.427013   -1.729000
  C     -2.195292    2.457420   -1.729000
  C     -1.459622    3.670823   -1.729000
  C     -0.093378    3.670823   -1.729000
  C      0.642292    2.457420   -1.729000
  C      2.060965    2.427013   -1.729000
  C      2.744087    1.243810   -1.729000
  C      2.061084    0.000000   -1.729000
  C      2.744087   -1.243810   -1.729000
  C      2.060965   -2.427013   -1.729000
  H      0.449580   -4.607417   -1.729000
  H     -2.002581   -4.607417   -1.729000
  H     -4.153600   -3.365525   -1.729000
  H     -5.379680   -1.241892   -1.729000
  H     -5.379680    1.241892   -1.729000
  H     -4.153600    3.365525   -1.729000
  H     -2.002581    4.607417   -1.729000
  H      0.449580    4.607417   -1.729000
  H      2.600600    3.365525   -1.729000
  H      3.826680    1.241892   -1.729000
  H      3.826680   -1.241892   -1.729000
  H      2.600600   -3.365525   -1.729000
  C      0.065468   -1.231543    1.729000
  C      1.487532   -1.231543    1.729000
  C      2.198564    0.000000    1.729000
  C      1.487532    1.231543    1.729000
  C      0.065468    1.231543    1.729000
  C     -0.645564    0.000000    1.729000
  C      2.195292   -2.457420    1.729000
  C      1.459622   -3.670823    1.729000
  C      0.093378   -3.670823    1.729000
  C     -0.642292   -2.457420    1.729000
  C     -2.061084    0.000000    1.729000
  C     -2.744087   -1.243810    1.729000
  C     -2.060965   -2.427013    1.729000
  C     -2.744087    1.243810    1.729000
  C     -2.060965    2.427013    1.729000
  C     -0.642292    2.457420    1.729000
  C      0.093378    3.670823    1.729000
  C      1.459622    3.670823    1.729000
  C      2.195292    2.457420    1.729000
  C      3.613965    2.427013    1.729000
  C      4.297087    1.243810    1.729000
  C      3.614084    0.000000    1.729000
  C      4.297087   -1.243810    1.729000
  C      3.613965   -2.427013    1.729000
  H      2.002581   -4.607417    1.729000
  H     -0.449580   -4.607417    1.729000
  H     -2.600600   -3.365525    1.729000
  H     -3.826680   -1.241892    1.729000
  H     -3.826680    1.241892    1.729000
  H     -2.600600    3.365525    1.729000
  H     -0.449580    4.607417    1.729000
  H      2.002581    4.607417    1.729000
  H      4.153600    3.365525    1.729000
  H      5.379680    1.241892    1.729000
  H      5.379680   -1.241892    1.729000
  H      4.153600   -3.365525    1.729000

----------------------------
CARTESIAN COORDINATES (A.U.)
----------------------------
  NO LB      ZA    FRAG     MASS         X           Y           Z
   0 C     0.0000    0     0.000   -2.811028   -2.327279   -3.267336
   1 C     0.0000    0     0.000   -0.123717   -2.327279   -3.267336
   2 C     0.0000    0     0.000    1.219939    0.000000   -3.267336
   3 C     0.0000    0     0.000   -0.123717    2.327279   -3.267336
   4 C     0.0000    0     0.000   -2.811028    2.327279   -3.267336
   5 C     0.0000    0     0.000   -4.154684    0.000000   -3.267336
   6 C     0.0000    0     0.000    1.213756   -4.643851   -3.267336
   7 C     0.0000    0     0.000   -0.176459   -6.936850   -3.267336
   8 C     0.0000    0     0.000   -2.758286   -6.936850   -3.267336
   9 C     0.0000    0     0.000   -4.148501   -4.643851   -3.267336
  10 C     0.0000    0     0.000   -6.829629    0.000000   -3.267336
  11 C     0.0000    0     0.000   -8.120318   -2.350460   -3.267336
  12 C     0.0000    0     0.000   -6.829404   -4.586390   -3.267336
  13 C     0.0000    0     0.000   -8.120318    2.350460   -3.267336
  14 C     0.0000    0     0.000   -6.829404    4.586390   -3.267336
  15 C     0.0000    0     0.000   -4.148501    4.643851   -3.267336
  16 C     0.0000    0     0.000   -2.758286    6.936850   -3.267336
  17 C     0.0000    0     0.000   -0.176459    6.936850   -3.267336
  18 C     0.0000    0     0.000    1.213756    4.643851   -3.267336
  19 C     0.0000    0     0.000    3.894659    4.586390   -3.267336
  20 C     0.0000    0     0.000    5.185573    2.350460   -3.267336
  21 C     0.0000    0     0.000    3.894884    0.000000   -3.267336
  22 C     0.0000    0     0.000    5.185573   -2.350460   -3.267336
  23 C     0.0000    0     0.000    3.894659   -4.586390   -3.267336
  24 H     0.0000    0     0.000    0.849583   -8.706756   -3.267336
  25 H     0.0000    0     0.000   -3.784330   -8.706756   -3.267336
  26 H     0.0000    0     0.000   -7.849166   -6.359921   -3.267336
  27 H     0.0000    0     0.000  -10.166122   -2.346836   -3.267336
  28 H     0.0000    0     0.000  -10.166122    2.346836   -3.267336
  29 H     0.0000    0     0.000   -7.849166    6.359921   -3.267336
  30 H     0.0000    0     0.000   -3.784330    8.706756   -3.267336
  31 H     0.0000    0     0.000    0.849583    8.706756   -3.267336
  32 H     0.0000    0     0.000    4.914422    6.359921   -3.267336
  33 H     0.0000    0     0.000    7.231377    2.346836   -3.267336
  34 H     0.0000    0     0.000    7.231377   -2.346836   -3.267336
  35 H     0.0000    0     0.000    4.914422   -6.359921   -3.267336
  36 C     6.0000    0    12.011    0.123717   -2.327279    3.267336
  37 C     6.0000    0    12.011    2.811028   -2.327279    3.267336
  38 C     6.0000    0    12.011    4.154684    0.000000    3.267336
  39 C     6.0000    0    12.011    2.811028    2.327279    3.267336
  40 C     6.0000    0    12.011    0.123717    2.327279    3.267336
  41 C     6.0000    0    12.011   -1.219939    0.000000    3.267336
  42 C     6.0000    0    12.011    4.148501   -4.643851    3.267336
  43 C     6.0000    0    12.011    2.758286   -6.936850    3.267336
  44 C     6.0000    0    12.011    0.176459   -6.936850    3.267336
  45 C     6.0000    0    12.011   -1.213756   -4.643851    3.267336
  46 C     6.0000    0    12.011   -3.894884    0.000000    3.267336
  47 C     6.0000    0    12.011   -5.185573   -2.350460    3.267336
  48 C     6.0000    0    12.011   -3.894659   -4.586390    3.267336
  49 C     6.0000    0    12.011   -5.185573    2.350460    3.267336
  50 C     6.0000    0    12.011   -3.894659    4.586390    3.267336
  51 C     6.0000    0    12.011   -1.213756    4.643851    3.267336
  52 C     6.0000    0    12.011    0.176459    6.936850    3.267336
  53 C     6.0000    0    12.011    2.758286    6.936850    3.267336
  54 C     6.0000    0    12.011    4.148501    4.643851    3.267336
  55 C     6.0000    0    12.011    6.829404    4.586390    3.267336
  56 C     6.0000    0    12.011    8.120318    2.350460    3.267336
  57 C     6.0000    0    12.011    6.829629    0.000000    3.267336
  58 C     6.0000    0    12.011    8.120318   -2.350460    3.267336
  59 C     6.0000    0    12.011    6.829404   -4.586390    3.267336
  60 H     1.0000    0     1.008    3.784330   -8.706756    3.267336
  61 H     1.0000    0     1.008   -0.849583   -8.706756    3.267336
  62 H     1.0000    0     1.008   -4.914422   -6.359921    3.267336
  63 H     1.0000    0     1.008   -7.231377   -2.346836    3.267336
  64 H     1.0000    0     1.008   -7.231377    2.346836    3.267336
  65 H     1.0000    0     1.008   -4.914422    6.359921    3.267336
  66 H     1.0000    0     1.008   -0.849583    8.706756    3.267336
  67 H     1.0000    0     1.008    3.784330    8.706756    3.267336
  68 H     1.0000    0     1.008    7.849166    6.359921    3.267336
  69 H     1.0000    0     1.008   10.166122    2.346836    3.267336
  70 H     1.0000    0     1.008   10.166122   -2.346836    3.267336
  71 H     1.0000    0     1.008    7.849166   -6.359921    3.267336

--------------------------------
INTERNAL COORDINATES (ANGSTROEM)
--------------------------------
 C      0   0   0     0.000000000000     0.00000000     0.00000000
 C      1   0   0     1.422064000000     0.00000000     0.00000000
 C      2   1   0     1.422063523853   120.00001108     0.00000000
 C      3   2   1     1.422063523853   119.99997785     0.00000000
 C      4   3   2     1.422064000000   120.00001108     0.00000000
 C      1   2   3     1.422063523853   120.00001108     0.00000000
 C      2   1   3     1.415520623915   119.99998542   180.00000000
 C      7   2   1     1.418998657261   118.77214199     0.00000000
 C      8   7   2     1.366244000000   121.22787259     0.00000000
 C      1   2   3     1.415520623915   119.99998542   180.00000000
 C      6   1   2     1.415520000000   120.00001108   180.00000085
 C     11   6   1     1.418998384111   118.77214162     0.00000000
 C     12  11   6     1.366244855834   121.22787910     0.00000000
 C     11   6   1     1.418998384111   118.77214162   180.00000000
 C     14  11   6     1.366244855834   121.22787910     0.00000000
 C      5   4   3     1.415520623915   119.99998542   180.00000000
 C     16   5   4     1.418998657261   118.77214199     0.00000000
 C     17  16   5     1.366244000000   121.22787259     0.00000000
 C      4   3   2     1.415520623915   120.00000350   180.00000085
 C     19   4   3     1.418998825432   118.77212949     0.00000000
 C     20  19   4     1.366244855834   121.22783521     0.00000000
 C      3   2   1     1.415520000000   120.00001108   180.00000085
 C     22   3   2     1.418998384111   118.77214162     0.00000000
 C     23  22   3     1.366244855834   121.22787910     0.00000000
 H      8   7   2     1.082594896810   118.67059590   180.00000000
 H      9   8   7     1.082595398345   120.10157730   180.00000085
 H     13  12  11     1.082594433465   120.10155016   180.00000000
 H     12  11   6     1.082594699032   118.67063238   180.00000000
 H     14  11   6     1.082594699032   118.67063238   180.00000000
 H     15  14  11     1.082594433465   120.10155016   180.00000000
 H     17  16   5     1.082595398345   118.67055011   180.00000000
 H     18  17  16     1.082594896810   120.10153151   180.00000085
 H     20  19   4     1.082594433465   118.67061463   180.00000000
 H     21  20  19     1.082594699032   120.10148852   180.00000085
 H     23  22   3     1.082594699032   118.67063238   180.00000000
 H     24  23  22     1.082594433465   120.10155016   180.00000121
 C      2   1   3     3.460478035777    92.16844938    90.00000000
 C     37   2   1     1.422064000000    92.16844938   180.00000000
 C     38  37   2     1.422063523853   120.00001108    90.00000000
 C     39  38  37     1.422063523853   119.99997785     0.00000000
 C     40  39  38     1.422064000000   120.00001108     0.00000000
 C     37   2   1     1.422063523853    88.91596909   299.98224168
 C     38  37   2     1.415520623915   119.99998542   270.00000000
 C     43  38  37     1.418998657261   118.77214199     0.00000000
 C     44  43  38     1.366244000000   121.22787259     0.00000000
 C     37   2   1     1.415520623915    88.91596993    60.01778396
 C     42  37   2     1.415520000000   120.00001108    88.12184382
 C     47  42  37     1.418998384111   118.77214162     0.00000000
 C     48  47  42     1.366244855834   121.22787910     0.00000000
 C     47  42  37     1.418998384111   118.77214162   180.00000000
 C     50  47  42     1.366244855834   121.22787910     0.00000000
 C     41  40  39     1.415520623915   119.99998542   180.00000000
 C     52  41  40     1.418998657261   118.77214199     0.00000000
 C     53  52  41     1.366244000000   121.22787259     0.00000000
 C     40  39  38     1.415520623915   120.00000350   180.00000000
 C     55  40  39     1.418998825432   118.77212949     0.00000000
 C     56  55  40     1.366244855834   121.22783521     0.00000000
 C     39  38  37     1.415520000000   120.00001108   180.00000085
 C     58  39  38     1.418998384111   118.77214162     0.00000000
 C     59  58  39     1.366244855834   121.22787910     0.00000000
 H     44  43  38     1.082595398345   118.67055011   180.00000000
 H     45  44  43     1.082594896810   120.10153151   180.00000085
 H     49  48  47     1.082594433465   120.10155016   180.00000121
 H     48  47  42     1.082594699032   118.67063238   180.00000000
 H     50  47  42     1.082594699032   118.67063238   180.00000000
 H     51  50  47     1.082594433465   120.10155016   180.00000121
 H     53  52  41     1.082594896810   118.67059590   180.00000000
 H     54  53  52     1.082595398345   120.10157730   180.00000085
 H     56  55  40     1.082594433465   118.67061463   180.00000000
 H     57  56  55     1.082594699032   120.10148852   180.00000085
 H     59  58  39     1.082594699032   118.67063238   180.00000000
 H     60  59  58     1.082594433465   120.10155016   180.00000000

---------------------------
INTERNAL COORDINATES (A.U.)
---------------------------
 C      0   0   0     0.000000000000     0.00000000     0.00000000
 C      1   0   0     2.687311504909     0.00000000     0.00000000
 C      2   1   0     2.687310605121   120.00001108     0.00000000
 C      3   2   1     2.687310605121   119.99997785     0.00000000
 C      4   3   2     2.687311504909   120.00001108     0.00000000
 C      1   2   3     2.687310605121   120.00001108     0.00000000
 C      2   1   3     2.674946316117   119.99998542   180.00000000
 C      7   2   1     2.681518846626   118.77214199     0.00000000
 C      8   7   2     2.581826992113   121.22787259     0.00000000
 C      1   2   3     2.674946316117   119.99998542   180.00000000
 C      6   1   2     2.674945137088   120.00001108   180.00000085
 C     11   6   1     2.681518330446   118.77214162     0.00000000
 C     12  11   6     2.581828609405   121.22787910     0.00000000
 C     11   6   1     2.681518330446   118.77214162   180.00000000
 C     14  11   6     2.581828609405   121.22787910     0.00000000
 C      5   4   3     2.674946316117   119.99998542   180.00000000
 C     16   5   4     2.681518846626   118.77214199     0.00000000
 C     17  16   5     2.581826992113   121.22787259     0.00000000
 C      4   3   2     2.674946316117   120.00000350   180.00000085
 C     19   4   3     2.681519164423   118.77212949     0.00000000
 C     20  19   4     2.581828609405   121.22783521     0.00000000
 C      3   2   1     2.674945137088   120.00001108   180.00000085
 C     22   3   2     2.681518330446   118.77214162     0.00000000
 C     23  22   3     2.581828609405   121.22787910     0.00000000
 H      8   7   2     2.045807868952   118.67059590   180.00000000
 H      9   8   7     2.045808816715   120.10157730   180.00000085
 H     13  12  11     2.045806993356   120.10155016   180.00000000
 H     12  11   6     2.045807495206   118.67063238   180.00000000
 H     14  11   6     2.045807495206   118.67063238   180.00000000
 H     15  14  11     2.045806993356   120.10155016   180.00000000
 H     17  16   5     2.045808816715   118.67055011   180.00000000
 H     18  17  16     2.045807868952   120.10153151   180.00000085
 H     20  19   4     2.045806993356   118.67061463   180.00000000
 H     21  20  19     2.045807495206   120.10148852   180.00000085
 H     23  22   3     2.045807495206   118.67063238   180.00000000
 H     24  23  22     2.045806993356   120.10155016   180.00000121
 C      2   1   3     6.539355780069    92.16844938    90.00000000
 C     37   2   1     2.687311504909    92.16844938   180.00000000
 C     38  37   2     2.687310605121   120.00001108    90.00000000
 C     39  38  37     2.687310605121   119.99997785     0.00000000
 C     40  39  38     2.687311504909   120.00001108     0.00000000
 C     37   2   1     2.687310605121    88.91596909   299.98224168
 C     38  37   2     2.674946316117   119.99998542   270.00000000
 C     43  38  37     2.681518846626   118.77214199     0.00000000
 C     44  43  38     2.581826992113   121.22787259     0.00000000
 C     37   2   1     2.674946316117    88.91596993    60.01778396
 C     42  37   2     2.674945137088   120.00001108    88.12184382
 C     47  42  37     2.681518330446   118.77214162     0.00000000
 C     48  47  42     2.581828609405   121.22787910     0.00000000
 C     47  42  37     2.681518330446   118.77214162   180.00000000
 C     50  47  42     2.581828609405   121.22787910     0.00000000
 C     41  40  39     2.674946316117   119.99998542   180.00000000
 C     52  41  40     2.681518846626   118.77214199     0.00000000
 C     53  52  41     2.581826992113   121.22787259     0.00000000
 C     40  39  38     2.674946316117   120.00000350   180.00000000
 C     55  40  39     2.681519164423   118.77212949     0.00000000
 C     56  55  40     2.581828609405   121.22783521     0.00000000
 C     39  38  37     2.674945137088   120.00001108   180.00000085
 C     58  39  38     2.681518330446   118.77214162     0.00000000
 C     59  58  39     2.581828609405   121.22787910     0.00000000
 H     44  43  38     2.045808816715   118.67055011   180.00000000
 H     45  44  43     2.045807868952   120.10153151   180.00000085
 H     49  48  47     2.045806993356   120.10155016   180.00000121
 H     48  47  42     2.045807495206   118.67063238   180.00000000
 H     50  47  42     2.045807495206   118.67063238   180.00000000
 H     51  50  47     2.045806993356   120.10155016   180.00000121
 H     53  52  41     2.045807868952   118.67059590   180.00000000
 H     54  53  52     2.045808816715   120.10157730   180.00000085
 H     56  55  40     2.045806993356   118.67061463   180.00000000
 H     57  56  55     2.045807495206   120.10148852   180.00000085
 H     59  58  39     2.045807495206   118.67063238   180.00000000
 H     60  59  58     2.045806993356   120.10155016   180.00000000

---------------------
BASIS SET INFORMATION
---------------------
There are 2 groups of distinct atoms

 Group   1 Type C   : 17s4p2d contracted to 3s2p2d pattern {881/31/11}
 Group   2 Type H   : 4s1p contracted to 2s1p pattern {31/1}

Atom   0C    basis set group =>   1
Atom   1C    basis set group =>   1
Atom   2C    basis set group =>   1
Atom   3C    basis set group =>   1
Atom   4C    basis set group =>   1
Atom   5C    basis set group =>   1
Atom   6C    basis set group =>   1
Atom   7C    basis set group =>   1
Atom   8C    basis set group =>   1
Atom   9C    basis set group =>   1
Atom  10C    basis set group =>   1
Atom  11C    basis set group =>   1
Atom  12C    basis set group =>   1
Atom  13C    basis set group =>   1
Atom  14C    basis set group =>   1
Atom  15C    basis set group =>   1
Atom  16C    basis set group =>   1
Atom  17C    basis set group =>   1
Atom  18C    basis set group =>   1
Atom  19C    basis set group =>   1
Atom  20C    basis set group =>   1
Atom  21C    basis set group =>   1
Atom  22C    basis set group =>   1
Atom  23C    basis set group =>   1
Atom  24H    basis set group =>   2
Atom  25H    basis set group =>   2
Atom  26H    basis set group =>   2
Atom  27H    basis set group =>   2
Atom  28H    basis set group =>   2
Atom  29H    basis set group =>   2
Atom  30H    basis set group =>   2
Atom  31H    basis set group =>   2
Atom  32H    basis set group =>   2
Atom  33H    basis set group =>   2
Atom  34H    basis set group =>   2
Atom  35H    basis set group =>   2
Atom  36C    basis set group =>   1
Atom  37C    basis set group =>   1
Atom  38C    basis set group =>   1
Atom  39C    basis set group =>   1
Atom  40C    basis set group =>   1
Atom  41C    basis set group =>   1
Atom  42C    basis set group =>   1
Atom  43C    basis set group =>   1
Atom  44C    basis set group =>   1
Atom  45C    basis set group =>   1
Atom  46C    basis set group =>   1
Atom  47C    basis set group =>   1
Atom  48C    basis set group =>   1
Atom  49C    basis set group =>   1
Atom  50C    basis set group =>   1
Atom  51C    basis set group =>   1
Atom  52C    basis set group =>   1
Atom  53C    basis set group =>   1
Atom  54C    basis set group =>   1
Atom  55C    basis set group =>   1
Atom  56C    basis set group =>   1
Atom  57C    basis set group =>   1
Atom  58C    basis set group =>   1
Atom  59C    basis set group =>   1
Atom  60H    basis set group =>   2
Atom  61H    basis set group =>   2
Atom  62H    basis set group =>   2
Atom  63H    basis set group =>   2
Atom  64H    basis set group =>   2
Atom  65H    basis set group =>   2
Atom  66H    basis set group =>   2
Atom  67H    basis set group =>   2
Atom  68H    basis set group =>   2
Atom  69H    basis set group =>   2
Atom  70H    basis set group =>   2
Atom  71H    basis set group =>   2
---------------------------------
AUXILIARY/C BASIS SET INFORMATION
---------------------------------
There are 2 groups of distinct atoms

 Group   1 Type C   : 7s5p5d3f contracted to 7s5p5d3f pattern {1111111/11111/11111/111}
 Group   2 Type H   : 3s2p1d contracted to 3s2p1d pattern {111/11/1}

Atom   0C    basis set group =>   1
Atom   1C    basis set group =>   1
Atom   2C    basis set group =>   1
Atom   3C    basis set group =>   1
Atom   4C    basis set group =>   1
Atom   5C    basis set group =>   1
Atom   6C    basis set group =>   1
Atom   7C    basis set group =>   1
Atom   8C    basis set group =>   1
Atom   9C    basis set group =>   1
Atom  10C    basis set group =>   1
Atom  11C    basis set group =>   1
Atom  12C    basis set group =>   1
Atom  13C    basis set group =>   1
Atom  14C    basis set group =>   1
Atom  15C    basis set group =>   1
Atom  16C    basis set group =>   1
Atom  17C    basis set group =>   1
Atom  18C    basis set group =>   1
Atom  19C    basis set group =>   1
Atom  20C    basis set group =>   1
Atom  21C    basis set group =>   1
Atom  22C    basis set group =>   1
Atom  23C    basis set group =>   1
Atom  24H    basis set group =>   2
Atom  25H    basis set group =>   2
Atom  26H    basis set group =>   2
Atom  27H    basis set group =>   2
Atom  28H    basis set group =>   2
Atom  29H    basis set group =>   2
Atom  30H    basis set group =>   2
Atom  31H    basis set group =>   2
Atom  32H    basis set group =>   2
Atom  33H    basis set group =>   2
Atom  34H    basis set group =>   2
Atom  35H    basis set group =>   2
Atom  36C    basis set group =>   1
Atom  37C    basis set group =>   1
Atom  38C    basis set group =>   1
Atom  39C    basis set group =>   1
Atom  40C    basis set group =>   1
Atom  41C    basis set group =>   1
Atom  42C    basis set group =>   1
Atom  43C    basis set group =>   1
Atom  44C    basis set group =>   1
Atom  45C    basis set group =>   1
Atom  46C    basis set group =>   1
Atom  47C    basis set group =>   1
Atom  48C    basis set group =>   1
Atom  49C    basis set group =>   1
Atom  50C    basis set group =>   1
Atom  51C    basis set group =>   1
Atom  52C    basis set group =>   1
Atom  53C    basis set group =>   1
Atom  54C    basis set group =>   1
Atom  55C    basis set group =>   1
Atom  56C    basis set group =>   1
Atom  57C    basis set group =>   1
Atom  58C    basis set group =>   1
Atom  59C    basis set group =>   1
Atom  60H    basis set group =>   2
Atom  61H    basis set group =>   2
Atom  62H    basis set group =>   2
Atom  63H    basis set group =>   2
Atom  64H    basis set group =>   2
Atom  65H    basis set group =>   2
Atom  66H    basis set group =>   2
Atom  67H    basis set group =>   2
Atom  68H    basis set group =>   2
Atom  69H    basis set group =>   2
Atom  70H    basis set group =>   2
Atom  71H    basis set group =>   2
node12.3384PSM2 no hfi units are active (err=23)
node12.3384PSM2 no hfi units are active (err=23)
node12.3384PSM2 no hfi units are active (err=23)
node12.3384PSM2 no hfi units are active (err=23)
node12.3384PSM2 no hfi units are active (err=23)
node12.3386PSM2 no hfi units are active (err=23)
node12.3386PSM2 no hfi units are active (err=23)
node12.3386PSM2 no hfi units are active (err=23)
node12.3386PSM2 no hfi units are active (err=23)
node12.3386PSM2 no hfi units are active (err=23)
node12.3389PSM2 no hfi units are active (err=23)
node12.3392PSM2 no hfi units are active (err=23)
node12.3392PSM2 no hfi units are active (err=23)
node12.3389PSM2 no hfi units are active (err=23)
node12.3392PSM2 no hfi units are active (err=23)
node12.3389PSM2 no hfi units are active (err=23)
node12.3381PSM2 no hfi units are active (err=23)
node12.3381PSM2 no hfi units are active (err=23)
node12.3392PSM2 no hfi units are active (err=23)
node12.3381PSM2 no hfi units are active (err=23)
node12.3389PSM2 no hfi units are active (err=23)
node12.3392PSM2 no hfi units are active (err=23)
node12.3389PSM2 no hfi units are active (err=23)
node12.3381PSM2 no hfi units are active (err=23)
node12.3381PSM2 no hfi units are active (err=23)
node12.3382PSM2 no hfi units are active (err=23)
node12.3385PSM2 no hfi units are active (err=23)
node12.3382PSM2 no hfi units are active (err=23)
node12.3385PSM2 no hfi units are active (err=23)
node12.3387PSM2 no hfi units are active (err=23)
node12.3382PSM2 no hfi units are active (err=23)
node12.3385PSM2 no hfi units are active (err=23)
node12.3387PSM2 no hfi units are active (err=23)
node12.3387PSM2 no hfi units are active (err=23)
node12.3382PSM2 no hfi units are active (err=23)
node12.3385PSM2 no hfi units are active (err=23)
node12.3387PSM2 no hfi units are active (err=23)
node12.3382PSM2 no hfi units are active (err=23)
node12.3385PSM2 no hfi units are active (err=23)
node12.3387PSM2 no hfi units are active (err=23)
node12.3388PSM2 no hfi units are active (err=23)
node12.3388PSM2 no hfi units are active (err=23)
node12.3388PSM2 no hfi units are active (err=23)
node12.3390PSM2 no hfi units are active (err=23)
node12.3388PSM2 no hfi units are active (err=23)
node12.3390PSM2 no hfi units are active (err=23)
node12.3388PSM2 no hfi units are active (err=23)
node12.3390PSM2 no hfi units are active (err=23)
node12.3390PSM2 no hfi units are active (err=23)
node12.3390PSM2 no hfi units are active (err=23)
node12.3383PSM2 no hfi units are active (err=23)
node12.3391PSM2 no hfi units are active (err=23)
node12.3383PSM2 no hfi units are active (err=23)
node12.3391PSM2 no hfi units are active (err=23)
node12.3383PSM2 no hfi units are active (err=23)
node12.3391PSM2 no hfi units are active (err=23)
node12.3383PSM2 no hfi units are active (err=23)
node12.3391PSM2 no hfi units are active (err=23)
node12.3383PSM2 no hfi units are active (err=23)
node12.3391PSM2 no hfi units are active (err=23)


           ************************************************************
           *        Program running with 12 parallel MPI-processes    *
           *              working on a common directory               *
           ************************************************************
------------------------------------------------------------------------------
                           ORCA GTO INTEGRAL CALCULATION
------------------------------------------------------------------------------
------------------------------------------------------------------------------
                   ___                                                        
                  /   \      - P O W E R E D   B Y -                         
                 /     \                                                     
                 |  |  |   _    _      __       _____    __    __             
                 |  |  |  | |  | |    /  \     |  _  \  |  |  /  |          
                  \  \/   | |  | |   /    \    | | | |  |  | /  /          
                 / \  \   | |__| |  /  /\  \   | |_| |  |  |/  /          
                |  |  |   |  __  | /  /__\  \  |    /   |      \           
                |  |  |   | |  | | |   __   |  |    \   |  |\   \          
                \     /   | |  | | |  |  |  |  | |\  \  |  | \   \       
                 \___/    |_|  |_| |__|  |__|  |_| \__\ |__|  \__/        
                                                                              
                      - O R C A' S   B I G   F R I E N D -                    
                                      &                                       
                       - I N T E G R A L  F E E D E R -                       
                                                                              
 v1 FN, 2020, v2 2021                                                         
------------------------------------------------------------------------------


Reading SHARK input file coronene_mon_davdz.SHARKINP.tmp ... ok
----------------------
SHARK INTEGRAL PACKAGE
----------------------

Number of atoms                             ...     72
Number of basis functions                   ...   1320
Number of shells                            ...    696
Maximum angular momentum                    ...      2
Integral batch strategy                     ... SHARK/LIBINT Hybrid
RI-J (if used) integral strategy            ... SPLIT-RIJ (Revised 2003 algorithm where possible)
Printlevel                                  ...      1
Contraction scheme used                     ... PARTIAL GENERAL contraction
Coulomb Range Separation                    ... NOT USED
Exchange Range Separation                   ... NOT USED
Finite Nucleus Model                        ... NOT USED
Auxiliary Coulomb fitting basis             ... NOT available
Auxiliary J/K fitting basis                 ... NOT available
Auxiliary Correlation fitting basis         ... AVAILABLE
   # of basis functions in Aux-C            ...   3600
   # of shells in Aux-C                     ...   1104
   Maximum angular momentum in Aux-C        ...      3
Auxiliary 'external' fitting basis          ... NOT available
Integral threshold                          ...     1.000000e-12
Primitive cut-off                           ...     1.000000e-14
Primitive pair pre-selection threshold      ...     1.000000e-14

Calculating pre-screening integrals         ... done (  0.0 sec) Dimension = 696
Calculating pre-screening integrals (ORCA)  ... done (  0.1 sec) Dimension = 408
Organizing shell pair data                  ... done (  0.8 sec)
Shell pair information
Total number of shell pairs                 ...    242556
Shell pairs after pre-screening             ...    132631
Total number of primitive shell pairs       ...    353436
Primitive shell pairs kept                  ...    167201
          la=0 lb=0:  40809 shell pairs
          la=1 lb=0:  37060 shell pairs
          la=1 lb=1:   5949 shell pairs
          la=2 lb=0:  34206 shell pairs
          la=2 lb=1:  10190 shell pairs
          la=2 lb=2:   4417 shell pairs

Calculating one electron integrals          ... done (  0.2 sec)
Calculating RI/C V-Matrix + Cholesky decomp.... done (  0.6 sec)
Calculating Nuclear repulsion               ... done (  0.0 sec) ENN=   1837.330598264300 Eh

SHARK setup successfully completed in   2.8 seconds

Maximum memory used throughout the entire GTOINT-calculation: 171.8 MB
node12.3423PSM2 no hfi units are active (err=23)
node12.3425PSM2 no hfi units are active (err=23)
node12.3423PSM2 no hfi units are active (err=23)
node12.3425PSM2 no hfi units are active (err=23)
node12.3423PSM2 no hfi units are active (err=23)
node12.3425PSM2 no hfi units are active (err=23)
node12.3423PSM2 no hfi units are active (err=23)
node12.3425PSM2 no hfi units are active (err=23)
node12.3423PSM2 no hfi units are active (err=23)
node12.3425PSM2 no hfi units are active (err=23)
node12.3424PSM2 no hfi units are active (err=23)
node12.3424PSM2 no hfi units are active (err=23)
node12.3424PSM2 no hfi units are active (err=23)
node12.3424PSM2 no hfi units are active (err=23)
node12.3424PSM2 no hfi units are active (err=23)
node12.3430PSM2 no hfi units are active (err=23)
node12.3430PSM2 no hfi units are active (err=23)
node12.3430PSM2 no hfi units are active (err=23)
node12.3430PSM2 no hfi units are active (err=23)
node12.3430PSM2 no hfi units are active (err=23)
node12.3426PSM2 no hfi units are active (err=23)
node12.3426PSM2 no hfi units are active (err=23)
node12.3426PSM2 no hfi units are active (err=23)
node12.3426PSM2 no hfi units are active (err=23)
node12.3426PSM2 no hfi units are active (err=23)
node12.3432PSM2 no hfi units are active (err=23)
node12.3432PSM2 no hfi units are active (err=23)
node12.3432PSM2 no hfi units are active (err=23)
node12.3432PSM2 no hfi units are active (err=23)
node12.3432PSM2 no hfi units are active (err=23)
node12.3428PSM2 no hfi units are active (err=23)
node12.3428PSM2 no hfi units are active (err=23)
node12.3428PSM2 no hfi units are active (err=23)
node12.3428PSM2 no hfi units are active (err=23)
node12.3428PSM2 no hfi units are active (err=23)
node12.3429PSM2 no hfi units are active (err=23)
node12.3429PSM2 no hfi units are active (err=23)
node12.3429PSM2 no hfi units are active (err=23)
node12.3429PSM2 no hfi units are active (err=23)
node12.3429PSM2 no hfi units are active (err=23)
node12.3422PSM2 no hfi units are active (err=23)
node12.3427PSM2 no hfi units are active (err=23)
node12.3422PSM2 no hfi units are active (err=23)
node12.3427PSM2 no hfi units are active (err=23)
node12.3422PSM2 no hfi units are active (err=23)
node12.3427PSM2 no hfi units are active (err=23)
node12.3422PSM2 no hfi units are active (err=23)
node12.3427PSM2 no hfi units are active (err=23)
node12.3431PSM2 no hfi units are active (err=23)
node12.3421PSM2 no hfi units are active (err=23)
node12.3422PSM2 no hfi units are active (err=23)
node12.3427PSM2 no hfi units are active (err=23)
node12.3431PSM2 no hfi units are active (err=23)
node12.3421PSM2 no hfi units are active (err=23)
node12.3431PSM2 no hfi units are active (err=23)
node12.3421PSM2 no hfi units are active (err=23)
node12.3431PSM2 no hfi units are active (err=23)
node12.3421PSM2 no hfi units are active (err=23)
node12.3431PSM2 no hfi units are active (err=23)
node12.3421PSM2 no hfi units are active (err=23)


           ************************************************************
           *        Program running with 12 parallel MPI-processes    *
           *              working on a common directory               *
           ************************************************************
-------------------------------------------------------------------------------
                                 ORCA SCF
-------------------------------------------------------------------------------

------------
SCF SETTINGS
------------
Hamiltonian:
 Ab initio Hamiltonian  Method          .... Hartree-Fock(GTOs)


General Settings:
 Integral files         IntName         .... coronene_mon_davdz
 Hartree-Fock type      HFTyp           .... RHF
 Total Charge           Charge          ....    0
 Multiplicity           Mult            ....    1
 Number of Electrons    NEL             ....  156
 Basis Dimension        Dim             .... 1032
 Nuclear Repulsion      ENuc            ....   1837.3305982643 Eh

Convergence Acceleration:
 DIIS                   CNVDIIS         .... on
   Start iteration      DIISMaxIt       ....    12
   Startup error        DIISStart       ....  0.200000
   # of expansion vecs  DIISMaxEq       ....     5
   Bias factor          DIISBfac        ....   1.050
   Max. coefficient     DIISMaxC        ....  10.000
 Trust-Rad. Augm. Hess. CNVTRAH         .... auto
   Auto Start mean grad. ratio tolernc. ....  1.125000
   Auto Start start iteration           ....    20
   Auto Start num. interpolation iter.  ....    10
   Max. Number of Micro iterations      ....    16
   Max. Number of Macro iterations      .... Maxiter - #DIIS iter
   Number of Davidson start vectors     ....     2
   Converg. threshold I  (grad. norm)   ....   2.000e-06
   Converg. threshold II (energy diff.) ....   1.000e-09
   Grad. Scal. Fac. for Micro threshold ....   0.100
   Minimum threshold for Micro iter.    ....   0.010
   NR start threshold (gradient norm)   ....   0.001
   Initial trust radius                 ....   0.400
   Minimum AH scaling param. (alpha)    ....   1.000
   Maximum AH scaling param. (alpha)    .... 1000.000
   Orbital update algorithm             .... Taylor
   White noise on init. David. guess    .... on
   Maximum white noise                  ....   0.010
   Quad. conv. algorithm                .... NR
 SOSCF                  CNVSOSCF        .... on
   Start iteration      SOSCFMaxIt      ....   150
   Startup grad/error   SOSCFStart      ....  0.003300
 Level Shifting         CNVShift        .... on
   Level shift para.    LevelShift      ....    0.2500
   Turn off err/grad.   ShiftErr        ....    0.0010
 Zerner damping         CNVZerner       .... off
 Static damping         CNVDamp         .... on
   Fraction old density DampFac         ....    0.7000
   Max. Damping (<1)    DampMax         ....    0.9800
   Min. Damping (>=0)   DampMin         ....    0.0000
   Turn off err/grad.   DampErr         ....    0.1000
 Fernandez-Rico         CNVRico         .... off

SCF Procedure:
 Maximum # iterations   MaxIter         ....  2000
 SCF integral mode      SCFMode         .... Direct
   Integral package                     .... SHARK and LIBINT hybrid scheme
 Reset frequency        DirectResetFreq ....    20
 Integral Threshold     Thresh          ....  1.000e-12 Eh
 Primitive CutOff       TCut            ....  1.000e-14 Eh

Convergence Tolerance:
 Convergence Check Mode ConvCheckMode   .... Total+1el-Energy
 Convergence forced     ConvForced      .... 1
 Energy Change          TolE            ....  1.000e-09 Eh
 1-El. energy change                    ....  1.000e-06 Eh
 Orbital Gradient       TolG            ....  2.000e-06
 Orbital Rotation angle TolX            ....  2.000e-06
 DIIS Error             TolErr          ....  1.000e-08


Diagonalization of the overlap matrix:
Smallest eigenvalue                        ... 3.099e-08
Time for diagonalization                   ...    0.175 sec
Threshold for overlap eigenvalues          ... 1.000e-08
Number of eigenvalues below threshold      ... 0
Time for construction of square roots      ...    0.104 sec
Total time needed                          ...    0.284 sec

Time for model grid setup =    0.693 sec

------------------------------
INITIAL GUESS: MODEL POTENTIAL
------------------------------
Loading Hartree-Fock densities                     ... done
Calculating cut-offs                               ... done
Initializing the effective Hamiltonian             ... done
Setting up the integral package (SHARK)            ... done
Starting the Coulomb interaction                   ... done (   0.8 sec)
Reading the grid                                   ... done
Mapping shells                                     ... done
Starting the XC term evaluation                    ... done (   0.5 sec)
Transforming the Hamiltonian                       ... done (   0.1 sec)
Diagonalizing the Hamiltonian                      ... done (   0.2 sec)
Back transforming the eigenvectors                 ... done (   0.0 sec)
Now organizing SCF variables                       ... done
                      ------------------
                      INITIAL GUESS DONE (   2.3 sec)
                      ------------------
--------------
SCF ITERATIONS
--------------
ITER       Energy         Delta-E        Max-DP      RMS-DP      [F,P]     Damp
               ***  Starting incremental Fock matrix formation  ***
  0   -915.3687472135   0.000000000000161.60315503  0.89759836  0.1526428 0.7000
  1   -915.5813339416  -0.212586728140114.38839282  0.63513605  0.1040699 0.7000
                               ***Turning on DIIS***
  2   -915.7221041104  -0.140770168783262.87993690  1.45922225  0.0654446 0.0000
  3   -914.7971015616   0.925002548797 6.83424377  0.03861139  0.0209976 0.0000
  4   -915.9480721174  -1.150970555806 0.32646202  0.00229756  0.0051042 0.0000
                      *** Initiating the SOSCF procedure ***
                           *** Shutting down DIIS ***
                      *** Re-Reading the Fockian *** 
                      *** Removing any level shift *** 
ITER      Energy       Delta-E        Grad      Rot      Max-DP    RMS-DP
  5   -916.00374970  -0.0556775794  0.001984  0.001984  0.344899  0.001913
               *** Restarting incremental Fock matrix formation ***
  6   -916.03128497  -0.0275352696  0.001400  0.003603  0.096192  0.000625
  7   -916.03137168  -0.0000867182  0.000639  0.004169  0.059449  0.000402
  8   -916.03140727  -0.0000355879  0.000279  0.000570  0.039146  0.000252
  9   -916.03141079  -0.0000035209  0.000161  0.000374  0.025205  0.000127
 10   -916.03141152  -0.0000007298  0.000021  0.000036  0.002727  0.000019
 11   -916.03141155  -0.0000000314  0.000008  0.000015  0.000677  0.000008
 12   -916.03141156  -0.0000000053  0.000001  0.000003  0.002575  0.000017
                  ***Gradient check signals convergence***
              ***Rediagonalizing the Fockian in SOSCF/NRSCF***

               *****************************************************
               *                     SUCCESS                       *
               *           SCF CONVERGED AFTER  13 CYCLES          *
               *****************************************************


----------------
TOTAL SCF ENERGY
----------------

Total Energy       :         -916.03141156 Eh          -24926.48195 eV

Components:
Nuclear Repulsion  :         1837.33059826 Eh           49996.30734 eV
Electronic Energy  :        -2753.36200983 Eh          -74922.78929 eV
One Electron Energy:        -4891.94609249 Eh         -133116.62069 eV
Two Electron Energy:         2138.58408266 Eh           58193.83141 eV

Virial components:
Potential Energy   :        -1831.88107098 Eh          -49848.01817 eV
Kinetic Energy     :          915.84965942 Eh           24921.53622 eV
Virial Ratio       :            2.00019845


---------------
SCF CONVERGENCE
---------------

  Last Energy change         ...   -1.2647e-09  Tolerance :   1.0000e-09
  Last MAX-Density change    ...    1.4653e-03  Tolerance :   1.0000e-08
  Last RMS-Density change    ...    9.4852e-06  Tolerance :   1.0000e-09
  Last Orbital Gradient      ...    2.5297e-07  Tolerance :   2.0000e-06
  Last Orbital Rotation      ...    6.7428e-07  Tolerance :   2.0000e-06

             **** THE GBW FILE WAS UPDATED (coronene_mon_davdz.gbw) ****
             **** DENSITY coronene_mon_davdz.scfp WAS UPDATED ****
             **** ENERGY FILE WAS UPDATED (coronene_mon_davdz.en.tmp) ****
             **** THE GBW FILE WAS UPDATED (coronene_mon_davdz.gbw) ****
             **** DENSITY coronene_mon_davdz.scfp WAS UPDATED ****
----------------
ORBITAL ENERGIES
----------------

  NO   OCC          E(Eh)            E(eV) 
   0   2.0000     -11.251448      -306.1675 
   1   2.0000     -11.251089      -306.1577 
   2   2.0000     -11.251083      -306.1575 
   3   2.0000     -11.250641      -306.1455 
   4   2.0000     -11.250634      -306.1453 
   5   2.0000     -11.250532      -306.1425 
   6   2.0000     -11.250073      -306.1300 
   7   2.0000     -11.249950      -306.1267 
   8   2.0000     -11.249933      -306.1262 
   9   2.0000     -11.249362      -306.1107 
  10   2.0000     -11.249362      -306.1107 
  11   2.0000     -11.248929      -306.0989 
  12   2.0000     -11.245037      -305.9930 
  13   2.0000     -11.244985      -305.9916 
  14   2.0000     -11.244915      -305.9897 
  15   2.0000     -11.244904      -305.9894 
  16   2.0000     -11.244812      -305.9869 
  17   2.0000     -11.244756      -305.9854 
  18   2.0000     -11.243640      -305.9550 
  19   2.0000     -11.243593      -305.9537 
  20   2.0000     -11.243523      -305.9518 
  21   2.0000     -11.243518      -305.9517 
  22   2.0000     -11.243419      -305.9490 
  23   2.0000     -11.243372      -305.9477 
  24   2.0000      -1.220404       -33.2089 
  25   2.0000      -1.174199       -31.9516 
  26   2.0000      -1.174196       -31.9515 
  27   2.0000      -1.114835       -30.3362 
  28   2.0000      -1.114834       -30.3362 
  29   2.0000      -1.094257       -29.7762 
  30   2.0000      -1.054412       -28.6920 
  31   2.0000      -1.036895       -28.2153 
  32   2.0000      -1.015872       -27.6433 
  33   2.0000      -1.015870       -27.6432 
  34   2.0000      -0.974373       -26.5140 
  35   2.0000      -0.974372       -26.5140 
  36   2.0000      -0.867101       -23.5950 
  37   2.0000      -0.867101       -23.5950 
  38   2.0000      -0.865308       -23.5462 
  39   2.0000      -0.865306       -23.5462 
  40   2.0000      -0.851198       -23.1623 
  41   2.0000      -0.778291       -21.1784 
  42   2.0000      -0.764780       -20.8107 
  43   2.0000      -0.741703       -20.1828 
  44   2.0000      -0.741702       -20.1827 
  45   2.0000      -0.727244       -19.7893 
  46   2.0000      -0.706519       -19.2254 
  47   2.0000      -0.654462       -17.8088 
  48   2.0000      -0.654459       -17.8087 
  49   2.0000      -0.637273       -17.3411 
  50   2.0000      -0.637272       -17.3410 
  51   2.0000      -0.635393       -17.2899 
  52   2.0000      -0.635392       -17.2899 
  53   2.0000      -0.594779       -16.1848 
  54   2.0000      -0.588463       -16.0129 
  55   2.0000      -0.588460       -16.0128 
  56   2.0000      -0.584814       -15.9136 
  57   2.0000      -0.580006       -15.7828 
  58   2.0000      -0.567679       -15.4473 
  59   2.0000      -0.567678       -15.4473 
  60   2.0000      -0.532774       -14.4975 
  61   2.0000      -0.530594       -14.4382 
  62   2.0000      -0.523263       -14.2387 
  63   2.0000      -0.523261       -14.2386 
  64   2.0000      -0.515353       -14.0235 
  65   2.0000      -0.512085       -13.9345 
  66   2.0000      -0.512084       -13.9345 
  67   2.0000      -0.459690       -12.5088 
  68   2.0000      -0.459690       -12.5088 
  69   2.0000      -0.448198       -12.1961 
  70   2.0000      -0.448194       -12.1960 
  71   2.0000      -0.424573       -11.5532 
  72   2.0000      -0.367059        -9.9882 
  73   2.0000      -0.349015        -9.4972 
  74   2.0000      -0.332428        -9.0458 
  75   2.0000      -0.332423        -9.0457 
  76   2.0000      -0.258926        -7.0457 
  77   2.0000      -0.258923        -7.0457 
  78   0.0000       0.056604         1.5403 
  79   0.0000       0.056712         1.5432 
  80   0.0000       0.065138         1.7725 
  81   0.0000       0.083927         2.2838 
  82   0.0000       0.084644         2.3033 
  83   0.0000       0.104363         2.8399 
  84   0.0000       0.106216         2.8903 
  85   0.0000       0.114617         3.1189 
  86   0.0000       0.116255         3.1634 
  87   0.0000       0.123957         3.3730 
  88   0.0000       0.132667         3.6101 
  89   0.0000       0.140640         3.8270 
  90   0.0000       0.146516         3.9869 
  91   0.0000       0.160237         4.3603 
  92   0.0000       0.161360         4.3908 
  93   0.0000       0.167349         4.5538 
  94   0.0000       0.172099         4.6830 
  95   0.0000       0.179077         4.8729 
  96   0.0000       0.180311         4.9065 
  97   0.0000       0.181225         4.9314 
  98   0.0000       0.181639         4.9427 
  99   0.0000       0.183236         4.9861 
 100   0.0000       0.185467         5.0468 
 101   0.0000       0.196173         5.3381 
 102   0.0000       0.205771         5.5993 
 103   0.0000       0.208469         5.6727 
 104   0.0000       0.213431         5.8078 
 105   0.0000       0.219758         5.9799 
 106   0.0000       0.220333         5.9956 
 107   0.0000       0.228789         6.2257 
 108   0.0000       0.231040         6.2869 
 109   0.0000       0.238575         6.4919 
 110   0.0000       0.240234         6.5371 
 111   0.0000       0.243304         6.6206 
 112   0.0000       0.244152         6.6437 
 113   0.0000       0.245616         6.6835 
 114   0.0000       0.255576         6.9546 
 115   0.0000       0.257116         6.9965 
 116   0.0000       0.259297         7.0558 
 117   0.0000       0.261762         7.1229 
 118   0.0000       0.278481         7.5778 
 119   0.0000       0.285818         7.7775 
 120   0.0000       0.285935         7.7807 
 121   0.0000       0.288176         7.8417 
 122   0.0000       0.291496         7.9320 
 123   0.0000       0.293197         7.9783 
 124   0.0000       0.301142         8.1945 
 125   0.0000       0.310098         8.4382 
 126   0.0000       0.317001         8.6260 
 127   0.0000       0.318329         8.6622 
 128   0.0000       0.332269         9.0415 
 129   0.0000       0.332887         9.0583 
 130   0.0000       0.338651         9.2152 
 131   0.0000       0.343805         9.3554 
 132   0.0000       0.344456         9.3731 
 133   0.0000       0.345815         9.4101 
 134   0.0000       0.353334         9.6147 
 135   0.0000       0.355269         9.6674 
 136   0.0000       0.359293         9.7769 
 137   0.0000       0.364762         9.9257 
 138   0.0000       0.366855         9.9826 
 139   0.0000       0.379246        10.3198 
 140   0.0000       0.383253        10.4288 
 141   0.0000       0.384581        10.4650 
 142   0.0000       0.386077        10.5057 
 143   0.0000       0.388889        10.5822 
 144   0.0000       0.392824        10.6893 
 145   0.0000       0.393630        10.7112 
 146   0.0000       0.396266        10.7829 
 147   0.0000       0.399499        10.8709 
 148   0.0000       0.400672        10.9028 
 149   0.0000       0.402509        10.9528 
 150   0.0000       0.406199        11.0532 
 151   0.0000       0.411760        11.2046 
 152   0.0000       0.419333        11.4106 
 153   0.0000       0.420383        11.4392 
 154   0.0000       0.422090        11.4857 
 155   0.0000       0.423664        11.5285 
 156   0.0000       0.424228        11.5438 
 157   0.0000       0.433156        11.7868 
 158   0.0000       0.433552        11.7975 
 159   0.0000       0.434569        11.8252 
 160   0.0000       0.435370        11.8470 
 161   0.0000       0.439118        11.9490 
 162   0.0000       0.444295        12.0899 
 163   0.0000       0.448298        12.1988 
 164   0.0000       0.448505        12.2044 
 165   0.0000       0.452211        12.3053 
 166   0.0000       0.453960        12.3529 
 167   0.0000       0.457728        12.4554 
 168   0.0000       0.458862        12.4863 
 169   0.0000       0.463618        12.6157 
 170   0.0000       0.463868        12.6225 
 171   0.0000       0.467736        12.7277 
 172   0.0000       0.467799        12.7295 
 173   0.0000       0.470217        12.7953 
 174   0.0000       0.471296        12.8246 
 175   0.0000       0.476732        12.9725 
 176   0.0000       0.477450        12.9921 
 177   0.0000       0.479450        13.0465 
 178   0.0000       0.483897        13.1675 
 179   0.0000       0.490460        13.3461 
 180   0.0000       0.491024        13.3614 
 181   0.0000       0.491380        13.3711 
 182   0.0000       0.496009        13.4971 
 183   0.0000       0.498215        13.5571 
 184   0.0000       0.499726        13.5982 
 185   0.0000       0.502816        13.6823 
 186   0.0000       0.505641        13.7592 
 187   0.0000       0.513696        13.9784 
 188   0.0000       0.515002        14.0139 
 189   0.0000       0.515750        14.0343 
 190   0.0000       0.516665        14.0592 
 191   0.0000       0.521822        14.1995 
 192   0.0000       0.521900        14.2016 
 193   0.0000       0.524467        14.2715 
 194   0.0000       0.525813        14.3081 
 195   0.0000       0.527005        14.3405 
 196   0.0000       0.530152        14.4262 
 197   0.0000       0.539517        14.6810 
 198   0.0000       0.540851        14.7173 
 199   0.0000       0.541140        14.7252 
 200   0.0000       0.547807        14.9066 
 201   0.0000       0.548057        14.9134 
 202   0.0000       0.553911        15.0727 
 203   0.0000       0.554685        15.0937 
 204   0.0000       0.555798        15.1240 
 205   0.0000       0.559472        15.2240 
 206   0.0000       0.563266        15.3273 
 207   0.0000       0.567234        15.4352 
 208   0.0000       0.571928        15.5629 
 209   0.0000       0.578610        15.7448 
 210   0.0000       0.580997        15.8097 
 211   0.0000       0.582618        15.8539 
 212   0.0000       0.582933        15.8624 
 213   0.0000       0.586265        15.9531 
 214   0.0000       0.591285        16.0897 
 215   0.0000       0.595391        16.2014 
 216   0.0000       0.595409        16.2019 
 217   0.0000       0.598218        16.2783 
 218   0.0000       0.600535        16.3414 
 219   0.0000       0.605895        16.4872 
 220   0.0000       0.606568        16.5056 
 221   0.0000       0.611727        16.6459 
 222   0.0000       0.615487        16.7483 
 223   0.0000       0.617290        16.7973 
 224   0.0000       0.620703        16.8902 
 225   0.0000       0.621887        16.9224 
 226   0.0000       0.623801        16.9745 
 227   0.0000       0.626248        17.0411 
 228   0.0000       0.633789        17.2463 
 229   0.0000       0.634057        17.2536 
 230   0.0000       0.639415        17.3994 
 231   0.0000       0.640829        17.4378 
 232   0.0000       0.641483        17.4556 
 233   0.0000       0.642024        17.4704 
 234   0.0000       0.647669        17.6240 
 235   0.0000       0.649333        17.6693 
 236   0.0000       0.653565        17.7844 
 237   0.0000       0.655455        17.8358 
 238   0.0000       0.655767        17.8443 
 239   0.0000       0.660470        17.9723 
 240   0.0000       0.665213        18.1014 
 241   0.0000       0.672987        18.3129 
 242   0.0000       0.675726        18.3874 
 243   0.0000       0.678158        18.4536 
 244   0.0000       0.681342        18.5402 
 245   0.0000       0.681491        18.5443 
 246   0.0000       0.682986        18.5850 
 247   0.0000       0.688697        18.7404 
 248   0.0000       0.689859        18.7720 
 249   0.0000       0.693959        18.8836 
 250   0.0000       0.696600        18.9555 
 251   0.0000       0.698030        18.9944 
 252   0.0000       0.701954        19.1011 
 253   0.0000       0.703947        19.1554 
 254   0.0000       0.706093        19.2138 
 255   0.0000       0.708517        19.2797 
 256   0.0000       0.713143        19.4056 
 257   0.0000       0.718304        19.5460 
 258   0.0000       0.719437        19.5769 
 259   0.0000       0.720571        19.6077 
 260   0.0000       0.721162        19.6238 
 261   0.0000       0.724339        19.7103 
 262   0.0000       0.726816        19.7777 
 263   0.0000       0.728537        19.8245 
 264   0.0000       0.729494        19.8505 
 265   0.0000       0.733219        19.9519 
 266   0.0000       0.735294        20.0084 
 267   0.0000       0.737382        20.0652 
 268   0.0000       0.738197        20.0874 
 269   0.0000       0.749485        20.3945 
 270   0.0000       0.752007        20.4631 
 271   0.0000       0.757027        20.5998 
 272   0.0000       0.757142        20.6029 
 273   0.0000       0.762786        20.7565 
 274   0.0000       0.765681        20.8352 
 275   0.0000       0.768596        20.9146 
 276   0.0000       0.772210        21.0129 
 277   0.0000       0.776319        21.1247 
 278   0.0000       0.781572        21.2677 
 279   0.0000       0.783696        21.3254 
 280   0.0000       0.784159        21.3381 
 281   0.0000       0.785305        21.3692 
 282   0.0000       0.788849        21.4657 
 283   0.0000       0.794342        21.6152 
 284   0.0000       0.796678        21.6787 
 285   0.0000       0.798126        21.7181 
 286   0.0000       0.798515        21.7287 
 287   0.0000       0.800604        21.7855 
 288   0.0000       0.805858        21.9285 
 289   0.0000       0.813351        22.1324 
 290   0.0000       0.815037        22.1783 
 291   0.0000       0.818730        22.2788 
 292   0.0000       0.820269        22.3207 
 293   0.0000       0.823791        22.4165 
 294   0.0000       0.831312        22.6212 
 295   0.0000       0.836501        22.7624 
 296   0.0000       0.837124        22.7793 
 297   0.0000       0.839434        22.8422 
 298   0.0000       0.842637        22.9293 
 299   0.0000       0.846053        23.0223 
 300   0.0000       0.847993        23.0751 
 301   0.0000       0.850603        23.1461 
 302   0.0000       0.857343        23.3295 
 303   0.0000       0.858558        23.3626 
 304   0.0000       0.859945        23.4003 
 305   0.0000       0.861976        23.4556 
 306   0.0000       0.868009        23.6197 
 307   0.0000       0.873458        23.7680 
 308   0.0000       0.873836        23.7783 
 309   0.0000       0.875600        23.8263 
 310   0.0000       0.881234        23.9796 
 311   0.0000       0.881515        23.9872 
 312   0.0000       0.882705        24.0196 
 313   0.0000       0.887036        24.1375 
 314   0.0000       0.888118        24.1669 
 315   0.0000       0.895295        24.3622 
 316   0.0000       0.909113        24.7382 
 317   0.0000       0.912796        24.8384 
 318   0.0000       0.913882        24.8680 
 319   0.0000       0.915893        24.9227 
 320   0.0000       0.924979        25.1700 
 321   0.0000       0.928065        25.2539 
 322   0.0000       0.928181        25.2571 
 323   0.0000       0.931920        25.3588 
 324   0.0000       0.935815        25.4648 
 325   0.0000       0.937766        25.5179 
 326   0.0000       0.940663        25.5967 
 327   0.0000       0.942003        25.6332 
 328   0.0000       0.946618        25.7588 
 329   0.0000       0.947293        25.7772 
 330   0.0000       0.955185        25.9919 
 331   0.0000       0.960617        26.1397 
 332   0.0000       0.964143        26.2357 
 333   0.0000       0.965243        26.2656 
 334   0.0000       0.967254        26.3203 
 335   0.0000       0.974256        26.5109 
 336   0.0000       0.978444        26.6248 
 337   0.0000       0.979427        26.6516 
 338   0.0000       0.979567        26.6554 
 339   0.0000       0.986139        26.8342 
 340   0.0000       0.992852        27.0169 
 341   0.0000       0.993647        27.0385 
 342   0.0000       0.995441        27.0873 
 343   0.0000       1.000831        27.2340 
 344   0.0000       1.002975        27.2924 
 345   0.0000       1.007779        27.4231 
 346   0.0000       1.008380        27.4394 
 347   0.0000       1.009701        27.4754 
 348   0.0000       1.012395        27.5487 
 349   0.0000       1.017989        27.7009 
 350   0.0000       1.018116        27.7043 
 351   0.0000       1.020003        27.7557 
 352   0.0000       1.028893        27.9976 
 353   0.0000       1.031463        28.0675 
 354   0.0000       1.032795        28.1038 
 355   0.0000       1.036438        28.2029 
 356   0.0000       1.040457        28.3123 
 357   0.0000       1.042251        28.3611 
 358   0.0000       1.042927        28.3795 
 359   0.0000       1.043233        28.3878 
 360   0.0000       1.053451        28.6659 
 361   0.0000       1.054980        28.7075 
 362   0.0000       1.055918        28.7330 
 363   0.0000       1.058911        28.8144 
 364   0.0000       1.058922        28.8147 
 365   0.0000       1.059652        28.8346 
 366   0.0000       1.068246        29.0684 
 367   0.0000       1.068854        29.0850 
 368   0.0000       1.071870        29.1671 
 369   0.0000       1.081224        29.4216 
 370   0.0000       1.082356        29.4524 
 371   0.0000       1.084568        29.5126 
 372   0.0000       1.087187        29.5839 
 373   0.0000       1.090851        29.6836 
 374   0.0000       1.094635        29.7865 
 375   0.0000       1.097036        29.8519 
 376   0.0000       1.099289        29.9132 
 377   0.0000       1.099591        29.9214 
 378   0.0000       1.101801        29.9815 
 379   0.0000       1.109800        30.1992 
 380   0.0000       1.110440        30.2166 
 381   0.0000       1.116684        30.3865 
 382   0.0000       1.118241        30.4289 
 383   0.0000       1.124545        30.6004 
 384   0.0000       1.126990        30.6670 
 385   0.0000       1.129866        30.7452 
 386   0.0000       1.132399        30.8142 
 387   0.0000       1.133506        30.8443 
 388   0.0000       1.141844        31.0712 
 389   0.0000       1.145340        31.1663 
 390   0.0000       1.151125        31.3237 
 391   0.0000       1.152740        31.3677 
 392   0.0000       1.155135        31.4328 
 393   0.0000       1.164675        31.6924 
 394   0.0000       1.164791        31.6956 
 395   0.0000       1.172475        31.9047 
 396   0.0000       1.172617        31.9085 
 397   0.0000       1.174117        31.9493 
 398   0.0000       1.179120        32.0855 
 399   0.0000       1.181248        32.1434 
 400   0.0000       1.181866        32.1602 
 401   0.0000       1.183154        32.1952 
 402   0.0000       1.188040        32.3282 
 403   0.0000       1.189081        32.3566 
 404   0.0000       1.193749        32.4836 
 405   0.0000       1.195358        32.5274 
 406   0.0000       1.196758        32.5654 
 407   0.0000       1.202497        32.7216 
 408   0.0000       1.208919        32.8964 
 409   0.0000       1.213035        33.0084 
 410   0.0000       1.216289        33.0969 
 411   0.0000       1.221119        33.2283 
 412   0.0000       1.230282        33.4777 
 413   0.0000       1.236172        33.6379 
 414   0.0000       1.248888        33.9840 
 415   0.0000       1.249323        33.9958 
 416   0.0000       1.256228        34.1837 
 417   0.0000       1.256978        34.2041 
 418   0.0000       1.260620        34.3032 
 419   0.0000       1.261952        34.3395 
 420   0.0000       1.267884        34.5009 
 421   0.0000       1.268872        34.5278 
 422   0.0000       1.270755        34.5790 
 423   0.0000       1.273968        34.6664 
 424   0.0000       1.281823        34.8802 
 425   0.0000       1.283046        34.9134 
 426   0.0000       1.289667        35.0936 
 427   0.0000       1.296723        35.2856 
 428   0.0000       1.298805        35.3423 
 429   0.0000       1.300843        35.3977 
 430   0.0000       1.305414        35.5221 
 431   0.0000       1.305890        35.5351 
 432   0.0000       1.324745        36.0481 
 433   0.0000       1.328445        36.1488 
 434   0.0000       1.333621        36.2897 
 435   0.0000       1.338324        36.4177 
 436   0.0000       1.342886        36.5418 
 437   0.0000       1.344757        36.5927 
 438   0.0000       1.345504        36.6130 
 439   0.0000       1.349396        36.7189 
 440   0.0000       1.359470        36.9931 
 441   0.0000       1.361855        37.0580 
 442   0.0000       1.364783        37.1376 
 443   0.0000       1.369327        37.2613 
 444   0.0000       1.374233        37.3948 
 445   0.0000       1.375873        37.4394 
 446   0.0000       1.379359        37.5343 
 447   0.0000       1.382111        37.6092 
 448   0.0000       1.387104        37.7450 
 449   0.0000       1.392179        37.8831 
 450   0.0000       1.395783        37.9812 
 451   0.0000       1.399573        38.0843 
 452   0.0000       1.402177        38.1552 
 453   0.0000       1.403075        38.1796 
 454   0.0000       1.406000        38.2592 
 455   0.0000       1.409134        38.3445 
 456   0.0000       1.415313        38.5126 
 457   0.0000       1.422266        38.7018 
 458   0.0000       1.430846        38.9353 
 459   0.0000       1.431422        38.9510 
 460   0.0000       1.433420        39.0053 
 461   0.0000       1.434220        39.0271 
 462   0.0000       1.442857        39.2621 
 463   0.0000       1.444546        39.3081 
 464   0.0000       1.446019        39.3482 
 465   0.0000       1.446973        39.3741 
 466   0.0000       1.452106        39.5138 
 467   0.0000       1.457886        39.6711 
 468   0.0000       1.460988        39.7555 
 469   0.0000       1.462172        39.7877 
 470   0.0000       1.471164        40.0324 
 471   0.0000       1.476170        40.1686 
 472   0.0000       1.485744        40.4291 
 473   0.0000       1.486409        40.4472 
 474   0.0000       1.489743        40.5380 
 475   0.0000       1.494658        40.6717 
 476   0.0000       1.495249        40.6878 
 477   0.0000       1.498602        40.7790 
 478   0.0000       1.509696        41.0809 
[...]
sum of PNO error estimates for the kept pairs         ...      -0.000768747950 Eh
                                                          --------------------
sum of all corrections                                         -0.000799206552
Initial total correlation energy                               -2.988085139662
Thresholds for map construction and integral transformation for fine MP2 and CCSD(T) calculation:
   TCutMKN   ...     1.0e-03
   TCutDO    ...     1.0e-02
   TCutPairs ...     1.0e-06
   TCutCMO   ...     1.0e-03
   TCutCPAO  ...     1.0e-03

Time for aux screen maps:            0.032
Time for maps after fine MP2:            0.147
-----------------------------
LOCAL RI TRANSFORMATION (IJV)
-----------------------------

Orbital window:      24 to 77
Basis functions:   1032 (408 shells)
Aux. functions:    3600 (1104 shells)
Use SHARK:           on

Processing maps (0.0 sec)
Average map sizes:
   Aux shells -> MOs(i)           49.7
   Aux shells -> MOs(j)           49.7
   MOs        -> AO shells       385.1

Calculating integrals (7.9 sec, 74.611 MB)
Sorting integrals (0.2 sec, 74.574 MB)
Total time for the integral transformation: 8.1 sec
--------------------------------
LOCAL RI TRANSFORMATION (VABPAO)
--------------------------------

Number of PAOs:    1032
Basis functions:   1032 (408 shells)
Aux. functions:    3600 (1104 shells)
Use SHARK:           on

Processing maps (0.0 sec)
Average map sizes:
   Aux shells -> PAOs            859.6
   PAOs       -> AO shells       375.2

Calculating integrals (27.3 sec, 22309.436 MB)
Finished


-------------------------------------
Pair Pair Term precalculation with     
RI-(ij|mn) and (im|jn) transformation  
ON THE FLY                             
-------------------------------------

   IBatch   1 (of  13)              ... done (  187.571 sec)
   IBatch   2 (of  13)              ... done (  237.860 sec)
   IBatch   3 (of  13)              ... done (  246.371 sec)
   IBatch   4 (of  13)              ... done (  261.605 sec)
   IBatch   5 (of  13)              ... done (  290.431 sec)
   IBatch   6 (of  13)              ... done (  300.648 sec)
   IBatch   7 (of  13)              ... done (  308.081 sec)
   IBatch   8 (of  13)              ... done (  323.657 sec)
   IBatch   9 (of  13)              ... done (  306.723 sec)
   IBatch  10 (of  13)              ... done (  369.787 sec)
   IBatch  11 (of  13)              ... done (  394.676 sec)
   IBatch  12 (of  13)              ... done (  455.673 sec)
   IBatch  13 (of  13)              ... done (  383.864 sec)
Total EXT                           ...        4066.949 sec

---------------------
RI-PNO TRANSFORMATION
---------------------

Total Number of PNOs                   ... 81860
Average number of PNOs per pair        ...    56
Maximal number of PNOs per pair        ...   146
   #pairs with  1 -  5 PNOs   :    0
   #pairs with  6 - 10 PNOs   :   96
   #pairs with 11 - 15 PNOs   :   72
   #pairs with 16 - 20 PNOs   :   24
   #pairs with 21 - 25 PNOs   :  144
   #pairs with 26 - 30 PNOs   :   30
   #pairs with 31 - 35 PNOs   :   72
   #pairs with 36 - 40 PNOs   :   36
   #pairs with 41 - 45 PNOs   :  168
   #pairs with 46 - 50 PNOs   :   81
   #pairs with 51 - 55 PNOs   :   64
   #pairs with 56 - 60 PNOs   :   50
   #pairs with 61 - 65 PNOs   :   30
   #pairs with 66 - 70 PNOs   :   48
   #pairs with 71 - 75 PNOs   :  108
   #pairs with 76 - 80 PNOs   :   98
   #pairs with 81 - 85 PNOs   :   66
   #pairs with 86 - 90 PNOs   :    4
   #pairs with 91 - 95 PNOs   :   72
   #pairs with > 96 PNOs      :  180

Generation of (ij|ab)[P] integrals            ... on
Generation of (ia|bc)[P],(ja|bc)[P] integrals ... on
Storage of 3 and 4 external integrals         ... on
Generation of ALL (ka|bc)[P] integrals        ... on
Keep RI integrals in memory                   ... off

Ibatch:  1 (of  1)
Starting 2-4 index PNO integral generation ... done

Timings:
Total PNO integral transformation time     ...        999.790 sec
Size of the 3-external file                ...      4352 MB
Size of the 4-external file                ...     55205 MB
Size of the IKJL file                      ...         2 MB
Size of the all 3-external file            ...    117503 MB
Size of the 1-external file                ...       101 MB

Making pair/pair overlap matrices          ... done (  146.515 sec)
Size of the pair overlap file              ... 29983 MB
Redoing the guess amplitudes               ... done (    0.056 sec)

-------------------------
FINAL STARTUP INFORMATION
-------------------------

E(0)                                       ...   -916.031411558
E(SL-MP2)                                  ...     -2.988085140
E(SL-MP2) including corrections            ...     -2.988085140
Initial E(tot)                             ...   -919.019496698
<T|T>                                      ...      1.026959539
Number of pairs included                   ... 1443
Total number of pairs                      ... 1485

------------------------------------------------
                  RHF COUPLED CLUSTER ITERATIONS
------------------------------------------------

Number of PNO amplitudes to be optimized   ...      6251676
Number of non-PNO amplitudes               ...   1313297388
Untruncated number of regular amplitudes   ...   1351522260

Iter       E(tot)           E(Corr)          Delta-E          Residual     Time
  0   -919.019508215     -2.987297450      0.000787690      0.008371214  431.43
                           *** Turning on DIIS ***
  1   -919.140470924     -3.108260159     -0.120962709      0.004796467  439.59
  2   -919.224220902     -3.192010137     -0.083749978      0.002626123  429.55
  3   -919.238518869     -3.206308104     -0.014297967      0.001559994  426.61
  4   -919.243363711     -3.211152947     -0.004844842      0.000790455  424.73
  5   -919.245170063     -3.212959299     -0.001806352      0.000309030  426.71
  6   -919.245678689     -3.213467925     -0.000508626      0.000098141  422.84
  7   -919.245742574     -3.213531810     -0.000063885      0.000034936  424.60
  8   -919.245782711     -3.213571946     -0.000040136      0.000023078  424.49
  9   -919.245782120     -3.213571355      0.000000591      0.000015072  424.87
 10   -919.245785113     -3.213574348     -0.000002993      0.000009631  425.85
 11   -919.245783699     -3.213572934      0.000001414      0.000005925  428.60
 12   -919.245782587     -3.213571822      0.000001112      0.000003775  426.68
 13   -919.245781352     -3.213570587      0.000001235      0.000002152  425.32
 14   -919.245780478     -3.213569714      0.000000874      0.000001005  424.93
 15   -919.245779846     -3.213569081      0.000000633      0.000000402  424.28
               --- The Coupled-Cluster iterations have converged ---

----------------------
COUPLED CLUSTER ENERGY
----------------------

E(0)                                       ...   -916.031411558
E(CORR)(strong-pairs)                      ...     -3.213569081
E(CORR)(weak-pairs)                        ...     -0.000799207
E(CORR)(corrected)                         ...     -3.214368288
E(TOT)                                     ...   -919.245779846
Singles Norm <S|S>**1/2                    ...      0.102926838  
T1 diagnostic                              ...      0.009904140  

------------------
LARGEST AMPLITUDES
------------------
  57-> 78  57-> 78       0.030483
  45-> 78  45-> 78       0.030483
  51-> 78  51-> 78       0.030423
  53-> 78  53-> 78       0.030423
  64-> 78  64-> 78       0.030419
  60-> 78  60-> 78       0.030419
  52-> 78  52-> 78       0.030404
  50-> 78  50-> 78       0.030404
  61-> 78  61-> 78       0.030392
  65-> 78  65-> 78       0.030392
  44-> 78  44-> 78       0.030371
  56-> 78  56-> 78       0.030371
  40-> 82  40-> 82       0.027608
  36-> 82  36-> 82       0.027608
  39-> 82  39-> 82       0.027581
  38-> 82  38-> 82       0.027581


-------------------------------------------
DLPNO BASED TRIPLES CORRECTION
-------------------------------------------

Singles multiplier          ...  1.000000
TCutTNO                     ... 1.000e-09
TCutMP2Pairs                ... 1.000e-07
TCutDOStrong                ... 2.000e-02
TCutMKNStrong               ... 1.000e-02
TCutDOWeak                  ... 4.000e-02
TCutMKNWeak                 ... 1.000e-01

Fragment selection                          .... not used
Fock matrix occ-virt block is zero --> Setting DT_in_Triples to false.
Number of Triples that are to be computed   ...     27450

 . . . . . . . . .
10% done               (   1664.673 sec)
 . . . . . . . . .
20% done  
30% done  
40% done               (   1767.105 sec)
 . . . . . . . . .
50% done  
60% done  
70% done  
80% done               (   2068.689 sec)
 . . . . . . . . .
90% done               (    691.669 sec)
Triples timings:
Total time for T0               ...  6351.730 sec
Total time for Iterative (T)    ...     0.000 sec
Total time of overall (T)       ...  6351.751 sec

Triples List generation         ...     0.000 sec
TNO generation                  ...   159.351 sec
Pair density generation         ...     0.059 sec
Look up tables                  ...     0.000 sec
Generating 3-index integrals    ...  3997.024 sec
  Make 4-ind.int. from 3-ind.int...   780.900 sec
  Projecting amplitudes (D + S) ...   753.072 sec
  Downprojecting integrals      ...     0.053 sec
  Energy contr. (sum over a,b,c)...   121.107 sec
Fitting ET(->0)                 ...     0.000 sec

Everything after 3-index        ...  2195.110 sec

Timing details:
 TNO integrals                  ...  4712.512 sec
   Reading 3-index integrals    ...    29.753 sec
   Sorting integrals            ...   843.167 sec
       Sorting integrals 1      ...     0.032 sec
       Sorting integrals 2      ...   633.077 sec
       Sorting integrals 3      ...    47.916 sec
       Sorting integrals 4      ...     2.382 sec
       Sorting integrals 5      ...     7.757 sec
       Sorting integrals 6      ...   152.003 sec
   Calculating local VM**-1/2   ...    54.928 sec
   Orthogonal. integrals        ...    90.422 sec
   Multipl. 3-index integrals   ...  3694.243 sec
   All concerning IRIab (w/TNO) ...   460.631 sec

 Calculate W0/W1                ...   539.874 sec
 W 3-ext contribution           ...   277.625 sec
 W 3-int contribution           ...   105.531 sec
 Sorting W                      ...   143.023 sec

 V exchange contribution        ...    30.794 sec

 Timings for Triples without generation
     of 3-index integrals       ...  2195.062 sec
       0 weak pairs             ...  2161.285 sec
       1 weak pair              ...    33.778 sec
       2 weak pairs             ...     0.000 sec
       3 weak pairs             ...     0.000 sec
  Extra time for extrapolation  ...     0.000 sec

Number of Triples   (0, 1, 2, 3 weak pairs; overall):  25530    1920       0       0  ( 27450)
Number of Atoms     (0, 1, 2, 3 weak pairs; overall):   23.5    14.3     0.0     0.0  (    72)
Number of PAOs      (0, 1, 2, 3 weak pairs; overall):  372.0   233.7     0.0     0.0  (  1032)
Number of AuxFcns   (0, 1, 2, 3 weak pairs; overall): 1016.4   559.0     0.0     0.0  (  3600)
Number of TNOs      (0, 1, 2, 3 weak pairs         ):  125.1    70.1     0.0     0.0
Aver. Number of NTNO, Atoms, PAOs, AuxFcns / Triples:  27450   121.3    22.8   362.3   984.4

Triples Correction (T)                     ...     -0.162758793
Final correlation energy                   ...     -3.377127080
E(CCSD)                                    ...   -919.245779846
E(CCSD(T))                                 ...   -919.408538638



--------------------------------------------------------------------------------
                                    TIMINGS
--------------------------------------------------------------------------------


Total execution time                   ...    19246.502 sec

Localization of occupied MO's          ...        1.755 sec (  0.0%)
Fock Matrix Formation                  ...      570.343 sec (  3.0%)
Global overlap, Fock, MKN matrices     ...        2.332 sec (  0.0%)
Differential overlap integrals         ...        6.326 sec (  0.0%)
Organizing maps                        ...        0.396 sec (  0.0%)
RI 3-index integral generations        ...       51.734 sec (  0.3%)
RI-PNO integral transformation         ...     5368.253 sec ( 27.9%)
Initial Guess                          ...       59.709 sec (  0.3%)
DIIS Solver                            ...        6.107 sec (  0.0%)
State Vector Update                    ...        0.410 sec (  0.0%)
Sigma-vector construction              ...     6824.573 sec ( 35.5%)
  <0|H|D>                              ...        0.012 sec (  0.0% of sigma)
  <D|H|D>(0-ext)                       ...      260.068 sec (  3.8% of sigma)
  <D|H|D>(2-ext Fock)                  ...        0.211 sec (  0.0% of sigma)
  <D|H|D>(2-ext)                       ...      567.333 sec (  8.3% of sigma)
  <D|H|D>(4-ext)                       ...      672.422 sec (  9.9% of sigma)
  <D|H|D>(4-ext-corr)                  ...     3642.933 sec ( 53.4% of sigma)
  CCSD doubles correction              ...        8.784 sec (  0.1% of sigma)
  <S|H|S>                              ...        8.735 sec (  0.1% of sigma)
  <S|H|D>(1-ext)                       ...       12.893 sec (  0.2% of sigma)
  <D|H|S>(1-ext)                       ...        0.302 sec (  0.0% of sigma)
  <S|H|D>(3-ext)                       ...       13.173 sec (  0.2% of sigma)
  CCSD singles correction              ...        0.007 sec (  0.0% of sigma)
  Fock-dressing                        ...      922.704 sec ( 13.5% of sigma)
  Singles amplitudes                   ...       25.753 sec (  0.4% of sigma)
  (ik|jl)-dressing                     ...      201.212 sec (  2.9% of sigma)
  (ij|ab),(ia|jb)-dressing             ...      104.971 sec (  1.5% of sigma)
  Pair energies                        ...        0.104 sec (  0.0% of sigma)
Total Time for computing (T)           ...     6351.876 sec ( 33.0% of ALL)


Maximum memory used throughout the entire MDCI-calculation: 50075.4 MB

-------------------------   --------------------
FINAL SINGLE POINT ENERGY      -919.408538638115
-------------------------   --------------------


                            ***************************************
                            *     ORCA property calculations      *
                            ***************************************


  WARNING: The energy has been calculated at the MDCI level but the densities
           used in the property calculations are still SCF densities
           MDCI response densities have not been calculated 
           use %mdci Density linearized end
           or  %mdci Density unrelaxed end
           or  %mdci Density orbopt end

                                    ---------------------
                                    Active property flags
                                    ---------------------
   (+) Dipole Moment


------------------------------------------------------------------------------
                       ORCA ELECTRIC PROPERTIES CALCULATION
------------------------------------------------------------------------------

Dipole Moment Calculation                       ... on
Quadrupole Moment Calculation                   ... off
Polarizability Calculation                      ... off
GBWName                                         ... coronene_mon_davdz.gbw
Electron density                                ... coronene_mon_davdz.scfp
The origin for moment calculation is the CENTER OF MASS  = ( 1.467372, -0.000000  3.267336)

-------------
DIPOLE MOMENT
-------------
                                X             Y             Z
Electronic contribution:      0.01875       0.00000       0.09033
Nuclear contribution   :      0.00000       0.00000      -0.00000
                        -----------------------------------------
Total Dipole Moment    :      0.01875       0.00000       0.09033
                        -----------------------------------------
Magnitude (a.u.)       :      0.09225
Magnitude (Debye)      :      0.23449



--------------------
Rotational spectrum 
--------------------
 
Rotational constants in cm-1:     0.011200     0.011200     0.005600 
Rotational constants in MHz :   335.756267   335.756262   167.878132 

 Dipole components along the rotational axes: 
x,y,z [a.u.] :     0.000000    -0.018754     0.090326 
x,y,z [Debye]:     0.000000    -0.047670     0.229591 

 
node12.6622PSM2 no hfi units are active (err=23)
node12.6622PSM2 no hfi units are active (err=23)
node12.6622PSM2 no hfi units are active (err=23)
node12.6622PSM2 no hfi units are active (err=23)
node12.6622PSM2 no hfi units are active (err=23)
node12.6623PSM2 no hfi units are active (err=23)
node12.6623PSM2 no hfi units are active (err=23)
node12.6623PSM2 no hfi units are active (err=23)
node12.6623PSM2 no hfi units are active (err=23)
node12.6623PSM2 no hfi units are active (err=23)
node12.6620PSM2 no hfi units are active (err=23)
node12.6620PSM2 no hfi units are active (err=23)
node12.6620PSM2 no hfi units are active (err=23)
node12.6620PSM2 no hfi units are active (err=23)
node12.6620PSM2 no hfi units are active (err=23)
node12.6626PSM2 no hfi units are active (err=23)
node12.6626PSM2 no hfi units are active (err=23)
node12.6626PSM2 no hfi units are active (err=23)
node12.6626PSM2 no hfi units are active (err=23)
node12.6626PSM2 no hfi units are active (err=23)
node12.6618PSM2 no hfi units are active (err=23)
node12.6618PSM2 no hfi units are active (err=23)
node12.6618PSM2 no hfi units are active (err=23)
node12.6618PSM2 no hfi units are active (err=23)
node12.6618PSM2 no hfi units are active (err=23)
node12.6621PSM2 no hfi units are active (err=23)
node12.6627PSM2 no hfi units are active (err=23)
node12.6617PSM2 no hfi units are active (err=23)
node12.6627PSM2 no hfi units are active (err=23)
node12.6621PSM2 no hfi units are active (err=23)
node12.6619PSM2 no hfi units are active (err=23)
node12.6617PSM2 no hfi units are active (err=23)
node12.6624PSM2 no hfi units are active (err=23)
node12.6625PSM2 no hfi units are active (err=23)
node12.6621PSM2 no hfi units are active (err=23)
node12.6627PSM2 no hfi units are active (err=23)
node12.6617PSM2 no hfi units are active (err=23)
node12.6625PSM2 no hfi units are active (err=23)
node12.6619PSM2 no hfi units are active (err=23)
node12.6624PSM2 no hfi units are active (err=23)
node12.6625PSM2 no hfi units are active (err=23)
node12.6619PSM2 no hfi units are active (err=23)
node12.6624PSM2 no hfi units are active (err=23)
node12.6621PSM2 no hfi units are active (err=23)
node12.6627PSM2 no hfi units are active (err=23)
node12.6617PSM2 no hfi units are active (err=23)
node12.6628PSM2 no hfi units are active (err=23)
node12.6621PSM2 no hfi units are active (err=23)
node12.6627PSM2 no hfi units are active (err=23)
node12.6617PSM2 no hfi units are active (err=23)
node12.6628PSM2 no hfi units are active (err=23)
node12.6625PSM2 no hfi units are active (err=23)
node12.6624PSM2 no hfi units are active (err=23)
node12.6619PSM2 no hfi units are active (err=23)
node12.6628PSM2 no hfi units are active (err=23)
node12.6624PSM2 no hfi units are active (err=23)
node12.6619PSM2 no hfi units are active (err=23)
node12.6625PSM2 no hfi units are active (err=23)
node12.6628PSM2 no hfi units are active (err=23)
node12.6628PSM2 no hfi units are active (err=23)

Timings for individual modules:

Sum of individual times         ...    23495.488 sec (= 391.591 min)
GTO integral calculation        ...        5.650 sec (=   0.094 min)   0.0 %
SCF iterations                  ...     4235.713 sec (=  70.595 min)  18.0 %
MDCI module                     ...    19254.125 sec (= 320.902 min)  81.9 %
                             ****ORCA TERMINATED NORMALLY****
TOTAL RUN TIME: 0 days 6 hours 31 minutes 39 seconds 403 msec
