Starting Job at 15h47m52s_05_12_23
Starting Job from host liverpool

                                 *****************
                                 * O   R   C   A *
                                 *****************

                                            #,                                       
                                            ###                                      
                                            ####                                     
                                            #####                                    
                                            ######                                   
                                           ########,                                 
                                     ,,################,,,,,                         
                               ,,#################################,,                 
                          ,,##########################################,,             
                       ,#########################################, ''#####,          
                    ,#############################################,,   '####,        
                  ,##################################################,,,,####,       
                ,###########''''           ''''###############################       
              ,#####''   ,,,,##########,,,,          '''####'''          '####       
            ,##' ,,,,###########################,,,                        '##       
           ' ,,###''''                  '''############,,,                           
         ,,##''                                '''############,,,,        ,,,,,,###''
      ,#''                                            '''#######################'''  
     '                                                          ''''####''''         
             ,#######,   #######,   ,#######,      ##                                
            ,#'     '#,  ##    ##  ,#'     '#,    #''#        ######   ,####,        
            ##       ##  ##   ,#'  ##            #'  '#       #        #'  '#        
            ##       ##  #######   ##           ,######,      #####,   #    #        
            '#,     ,#'  ##    ##  '#,     ,#' ,#      #,         ##   #,  ,#        
             '#######'   ##     ##  '#######'  #'      '#     #####' # '####'        



                  #######################################################
                  #                        -***-                        #
                  #          Department of theory and spectroscopy      #
                  #    Directorship and core code : Frank Neese         #
                  #        Max Planck Institute fuer Kohlenforschung    #
                  #                Kaiser Wilhelm Platz 1               #
                  #                 D-45470 Muelheim/Ruhr               #
                  #                      Germany                        #
                  #                                                     #
                  #                  All rights reserved                #
                  #                        -***-                        #
                  #######################################################


                         Program Version 5.0.3 -  RELEASE  -


 With contributions from (in alphabetic order):
   Daniel Aravena         : Magnetic Suceptibility
   Michael Atanasov       : Ab Initio Ligand Field Theory (pilot matlab implementation)
   Alexander A. Auer      : GIAO ZORA, VPT2 properties, NMR spectrum
   Ute Becker             : Parallelization
   Giovanni Bistoni       : ED, misc. LED, open-shell LED, HFLD
   Martin Brehm           : Molecular dynamics
   Dmytro Bykov           : SCF Hessian
   Vijay G. Chilkuri      : MRCI spin determinant printing, contributions to CSF-ICE
   Dipayan Datta          : RHF DLPNO-CCSD density
   Achintya Kumar Dutta   : EOM-CC, STEOM-CC
   Dmitry Ganyushin       : Spin-Orbit,Spin-Spin,Magnetic field MRCI
   Miquel Garcia          : C-PCM and meta-GGA Hessian, CC/C-PCM, Gaussian charge scheme
   Yang Guo               : DLPNO-NEVPT2, F12-NEVPT2, CIM, IAO-localization
   Andreas Hansen         : Spin unrestricted coupled pair/coupled cluster methods
   Benjamin Helmich-Paris : MC-RPA, TRAH-SCF, COSX integrals
   Lee Huntington         : MR-EOM, pCC
   Robert Izsak           : Overlap fitted RIJCOSX, COSX-SCS-MP3, EOM
   Marcus Kettner         : VPT2
   Christian Kollmar      : KDIIS, OOCD, Brueckner-CCSD(T), CCSD density, CASPT2, CASPT2-K
   Simone Kossmann        : Meta GGA functionals, TD-DFT gradient, OOMP2, MP2 Hessian
   Martin Krupicka        : Initial AUTO-CI
   Lucas Lang             : DCDCAS
   Marvin Lechner         : AUTO-CI (C++ implementation), FIC-MRCC
   Dagmar Lenk            : GEPOL surface, SMD
   Dimitrios Liakos       : Extrapolation schemes; Compound Job, initial MDCI parallelization
   Dimitrios Manganas     : Further ROCIS development; embedding schemes
   Dimitrios Pantazis     : SARC Basis sets
   Anastasios Papadopoulos: AUTO-CI, single reference methods and gradients
   Taras Petrenko         : DFT Hessian,TD-DFT gradient, ASA, ECA, R-Raman, ABS, FL, XAS/XES, NRVS
   Peter Pinski           : DLPNO-MP2, DLPNO-MP2 Gradient
   Christoph Reimann      : Effective Core Potentials
   Marius Retegan         : Local ZFS, SOC
   Christoph Riplinger    : Optimizer, TS searches, QM/MM, DLPNO-CCSD(T), (RO)-DLPNO pert. Triples
   Tobias Risthaus        : Range-separated hybrids, TD-DFT gradient, RPA, STAB
   Michael Roemelt        : Original ROCIS implementation
   Masaaki Saitow         : Open-shell DLPNO-CCSD energy and density
   Barbara Sandhoefer     : DKH picture change effects
   Avijit Sen             : IP-ROCIS
   Kantharuban Sivalingam : CASSCF convergence, NEVPT2, FIC-MRCI
   Bernardo de Souza      : ESD, SOC TD-DFT
   Georgi Stoychev        : AutoAux, RI-MP2 NMR, DLPNO-MP2 response
   Willem Van den Heuvel  : Paramagnetic NMR
   Boris Wezisla          : Elementary symmetry handling
   Frank Wennmohs         : Technical directorship


 We gratefully acknowledge several colleagues who have allowed us to
 interface, adapt or use parts of their codes:
   Stefan Grimme, W. Hujo, H. Kruse, P. Pracht,  : VdW corrections, initial TS optimization,
                  C. Bannwarth, S. Ehlert          DFT functionals, gCP, sTDA/sTD-DF
   Ed Valeev, F. Pavosevic, A. Kumar             : LibInt (2-el integral package), F12 methods
   Garnet Chan, S. Sharma, J. Yang, R. Olivares  : DMRG
   Ulf Ekstrom                                   : XCFun DFT Library
   Mihaly Kallay                                 : mrcc  (arbitrary order and MRCC methods)
   Jiri Pittner, Ondrej Demel                    : Mk-CCSD
   Frank Weinhold                                : gennbo (NPA and NBO analysis)
   Christopher J. Cramer and Donald G. Truhlar   : smd solvation model
   Lars Goerigk                                  : TD-DFT with DH, B97 family of functionals
   V. Asgeirsson, H. Jonsson                     : NEB implementation
   FAccTs GmbH                                   : IRC, NEB, NEB-TS, DLPNO-Multilevel, CI-OPT
                                                   MM, QMMM, 2- and 3-layer-ONIOM, Crystal-QMMM,
                                                   LR-CPCM, SF, NACMEs, symmetry and pop. for TD-DFT,
                                                   nearIR, NL-DFT gradient (VV10), updates on ESD,
                                                   ML-optimized integration grids
   S Lehtola, MJT Oliveira, MAL Marques          : LibXC Library
   Liviu Ungur et al                             : ANISO software


 Your calculation uses the libint2 library for the computation of 2-el integrals
 For citations please refer to: http://libint.valeyev.net

 Your ORCA version has been built with support for libXC version: 5.1.0
 For citations please refer to: https://tddft.org/programs/libxc/

 This ORCA versions uses:
   CBLAS   interface :  Fast vector & matrix operations
   LAPACKE interface :  Fast linear algebra routines
   SCALAPACK package :  Parallel linear algebra routines
   Shared memory     :  Shared parallel matrices
   BLAS/LAPACK       :  OpenBLAS 0.3.15  USE64BITINT DYNAMIC_ARCH NO_AFFINITY Zen SINGLE_THREADED
        Core in use  :  Zen
   Copyright (c) 2011-2014, The OpenBLAS Project


================================================================================

cite the ECPs for Ti [SD(10,MDF)] as follows:
  M. Dolg, U. Wedig, H. Stoll, H. Preuss, J. Chem. Phys. 86, 866 (1987).

cite the ECPs for O  [SD(2,MWB)] as follows:
  A. Bergner, M. Dolg, W. Kuechle, H. Stoll, H. Preuss, Mol. Phys. 80, 1431 (1993).

ECP parameters for Ti [SD(10,MDF)], O  [SD(2,MWB)] have been obtained from:
  pseudopotential library of the Stuttgart/Cologne group
  http://www.theochem.uni-stuttgart.de/pseudopotentials/

----- Orbital basis set information -----
Your calculation utilizes the basis: ZORA-def2-TZVP 
   Exponents from def2-TZVP [F. Weigend and R. Ahlrichs, Phys. Chem. Chem. Phys. 7, 3297 (2005)],
   recontracted for ZORA by D. A. Pantazis.

----- AuxJ basis set information -----
Your calculation utilizes the auxiliary basis: SARC/J 
   decontracted def2/J up to Kr:
   F. Weigend, Phys. Chem. Chem. Phys. 8, 1057 (2006)
   and SARC auxiliary basis sets beyond Kr:
   D. A. Pantazis and F. Neese, J. Chem. Theory Comput. 5, 2229 (2009).
   D. A. Pantazis, X. Y. Chen, C. R. Landis and F. Neese, J. Chem. Theory Comput. 4, 908 (2008).
   D. A. Pantazis and F. Neese, Theor. Chem. Acc. 131, 1292 (2012).
   D. A. Pantazis and F. Neese, J. Chem. Theory Comput. 7, 677 (2011).

================================================================================
                                        WARNINGS
                       Please study these warnings very carefully!
================================================================================

INFO   : Checking CIS options ...

WARNING: CIS/ROCIS methods need fully converged wavefunctions
  ===> : Setting SCFConvForced true
         You can overwrite this default with %scf ConvForced false 


INFO   : the flag for use of the SHARK integral package has been found!

================================================================================
                                       INPUT FILE
================================================================================
NAME = QMMM_TDDFT_800.inp
|  1> ! UKS B3LYP ZORA-def2-TZVP SARC/J RIJCOSX TightSCF ZORA
|  2> ! kdiis
|  3> ! DoEQ
|  4> ! moread
|  5> 
|  6> %moinp "QMMM_SP_kdiis.gbw"
|  7> 
|  8> %pointcharges "PC.pc"
|  9> 
| 10> %tddft NRoots 800
| 11> MaxDim 8000
| 12> XASLoc[0] = 54,61
| 13> XASLoc[1] = 54,61
| 14> OrbWin[0] = 54,61,-1,-1
| 15> OrbWin[1] = 54,61,-1,-1
| 16> DoQuad True
| 17> TDA True
| 18> end
| 19> 
| 20> %pal
| 21> nprocs 12
| 22> end
| 23> 
| 24> %maxcore 30000
| 25> 
| 26> * xyz 0 3
| 27> Fe 29.59185 29.001425 11.839077
| 28> N 29.698614 25.633228 12.048136
| 29> N 30.995935 27.685278 11.86739
| 30> N 28.273163 27.600134 11.888092
| 31> N 32.966648 29.109194 11.741404
| 32> N 26.218357 28.896458 11.745732
| 33> N 30.910131 30.404964 11.867431
| 34> N 28.190268 30.320332 11.852822
| 35> N 29.486738 32.37051 12.06344
| 36> C 33.857906 24.018417 11.973957
| 37> C 25.654367 23.753843 11.844493
| 38> C 32.492588 24.314939 12.045897
| 39> C 26.996664 24.135544 11.944453
| 40> C 34.820732 25.036329 11.860461
| 41> C 24.628822 24.712219 11.75752
| 42> C 32.127937 25.658731 11.997677
| 43> C 27.273771 25.501463 11.946433
| 44> C 34.452106 26.384274 11.813712
| 45> C 30.832747 26.306408 11.980724
| 46> C 24.908899 26.081936 11.761035
| 47> C 28.524248 26.232279 11.969651
| 48> C 33.092541 26.677994 11.878802
| 49> C 26.246452 26.45966 11.847226
| 50> C 32.363796 27.931242 11.810417
| 51> C 26.893394 27.758446 11.813144
| 52> C 32.291214 30.247274 11.80229
| 53> C 26.821398 30.074581 11.804911
| 54> C 32.938141 31.545685 11.851909
| 55> C 26.093533 31.328287 11.877799
| 56> C 30.660463 31.772438 11.973743
| 57> C 34.275764 31.92687 11.778481
| 58> C 28.352921 31.69898 11.983142
| 59> C 24.733742 31.624636 11.816725
| 60> C 31.910418 32.501724 11.968808
| 61> C 27.058611 32.345707 12.008235
| 62> C 34.555607 33.295963 11.813254
| 63> C 24.365982 32.971516 11.885628
| 64> C 32.187256 33.866695 12.006487
| 65> C 26.694508 33.688679 12.080955
| 66> C 33.529247 34.250374 11.925345
| 67> C 25.330175 33.986416 12.018261
| 68> H 34.183624 22.976433 11.999062
| 69> H 25.396601 22.692635 11.829052
| 70> H 31.736822 23.532288 12.123851
| 71> H 27.800503 23.400871 12.00699
| 72> H 35.875786 24.771227 11.77995
| 73> H 23.593092 24.38327 11.660362
| 74> H 35.195595 27.171638 11.69411
| 75> H 24.116774 26.822199 11.6568
| 76> H 35.069324 31.18947 11.661652
| 77> H 23.989058 30.838902 11.690221
| 78> H 35.590477 33.628201 11.722837
| 79> H 23.311962 33.240002 11.806828
| 80> H 31.38191 34.598297 12.082129
| 81> H 27.451691 34.468777 12.168254
| 82> H 33.787556 35.311298 11.940024
| 83> H 25.004078 35.027519 12.062127
| 84> Ti 26.612858 29.230352 7.634125
| 85> Ti 29.571186 29.229313 7.636239
| 86> Ti 32.529842 29.227238 7.634027
| 87> Ti 28.102079 25.985106 7.871899
| 88> Ti 28.099688 32.476002 7.876213
| 89> Ti 31.046301 25.982443 7.871747
| 90> Ti 31.046059 32.473816 7.867186
| 91> O 29.570599 29.226429 5.780014
| 92> O 25.137068 28.016798 7.95384
| 93> O 28.092146 28.020117 7.969075
| 94> O 31.049578 28.018797 7.968153
| 95> O 34.005962 28.016159 7.955691
| 96> O 28.092854 30.440514 7.962262
| 97> O 31.050211 30.43935 7.962804
| 98> O 34.005741 30.439831 7.956497
| 99> O 26.617197 25.989172 8.9944
|100> O 26.615759 32.468967 8.999919
|101> O 29.571346 25.994465 9.012411
|102> O 29.573748 32.465775 9.008997
|103> O 32.525291 25.990503 9.003989
|104> O 32.526848 32.469116 8.995621
|105> Ti> 2.0650 23.659060 22.732183 7.642075 NewECP "SDD" end
|106> Ti> 2.0650 23.657347 29.226843 7.633233 NewECP "SDD" end
|107> Ti> 2.0650 23.658531 35.721058 7.636074 NewECP "SDD" end
|108> Ti> 2.0650 26.616512 22.740301 7.646969 NewECP "SDD" end
|109> Ti> 2.0650 26.615868 35.722874 7.638561 NewECP "SDD" end
|110> Ti> 2.0650 29.572968 22.733719 7.643819 NewECP "SDD" end
|111> Ti> 2.0650 29.572208 35.721405 7.638226 NewECP "SDD" end
|112> Ti> 2.0650 32.529053 22.737013 7.642442 NewECP "SDD" end
|113> Ti> 2.0650 32.528263 35.719227 7.636846 NewECP "SDD" end
|114> Ti> 2.0650 35.484814 22.732891 7.638775 NewECP "SDD" end
|115> Ti> 2.0650 35.484074 29.228168 7.633139 NewECP "SDD" end
|116> Ti> 2.0650 35.485424 35.722168 7.632635 NewECP "SDD" end
|117> Ti> 2.0650 22.181768 22.732203 4.479386 NewECP "SDD" end
|118> Ti> 2.0650 22.179424 29.227369 4.467870 NewECP "SDD" end
|119> Ti> 2.0650 22.180185 35.723721 4.472855 NewECP "SDD" end
|120> Ti> 2.0650 25.139452 22.732058 4.479278 NewECP "SDD" end
|121> Ti> 2.0650 25.135260 29.225237 4.469847 NewECP "SDD" end
|122> Ti> 2.0650 25.136629 35.719444 4.473577 NewECP "SDD" end
|123> Ti> 2.0650 28.094164 22.730436 4.479742 NewECP "SDD" end
|124> Ti> 2.0650 28.091997 29.225050 4.468642 NewECP "SDD" end
|125> Ti> 2.0650 28.091944 35.719044 4.473938 NewECP "SDD" end
|126> Ti> 2.0650 31.051207 22.730062 4.477278 NewECP "SDD" end
|127> Ti> 2.0650 31.048594 29.225182 4.470978 NewECP "SDD" end
|128> Ti> 2.0650 31.049814 35.719952 4.473803 NewECP "SDD" end
|129> Ti> 2.0650 34.007732 22.730465 4.474930 NewECP "SDD" end
|130> Ti> 2.0650 34.006836 29.225245 4.468871 NewECP "SDD" end
|131> Ti> 2.0650 34.007729 35.719383 4.470376 NewECP "SDD" end
|132> Ti> 2.0650 36.964394 22.730755 4.474236 NewECP "SDD" end
|133> Ti> 2.0650 36.964455 29.225245 4.469948 NewECP "SDD" end
|134> Ti> 2.0650 36.964912 35.719898 4.470191 NewECP "SDD" end
|135> Ti> 2.0650 23.656536 25.978588 4.473283 NewECP "SDD" end
|136> Ti> 2.0650 23.656404 32.473564 4.465249 NewECP "SDD" end
|137> Ti> 2.0650 26.615122 25.978857 4.465275 NewECP "SDD" end
|138> Ti> 2.0650 26.614237 32.471741 4.459029 NewECP "SDD" end
|139> Ti> 2.0650 29.571308 25.977766 4.444798 NewECP "SDD" end
|140> Ti> 2.0650 29.570946 32.472054 4.445079 NewECP "SDD" end
|141> Ti> 2.0650 32.527859 25.978468 4.453417 NewECP "SDD" end
|142> Ti> 2.0650 32.527706 32.472786 4.449509 NewECP "SDD" end
|143> Ti> 2.0650 35.484974 25.977592 4.470727 NewECP "SDD" end
|144> Ti> 2.0650 35.485096 32.471973 4.467006 NewECP "SDD" end
|145> Ti> 2.0650 22.168146 25.980883 7.893442 NewECP "SDD" end
|146> Ti> 2.0650 22.174110 32.474434 7.882799 NewECP "SDD" end
|147> Ti> 2.0650 25.133904 25.982531 7.877229 NewECP "SDD" end
|148> Ti> 2.0650 25.138905 32.476006 7.873893 NewECP "SDD" end
|149> Ti> 2.0650 34.000690 25.980593 7.876651 NewECP "SDD" end
|150> Ti> 2.0650 34.001907 32.475945 7.871064 NewECP "SDD" end
|151> Ti> 2.0650 36.966042 25.980869 7.888977 NewECP "SDD" end
|152> Ti> 2.0650 36.967777 32.474644 7.886752 NewECP "SDD" end
|153> O> -1.0325 23.659781 22.735092 5.786838 NewECP "SDD" end
|154> O> -1.0325 23.657917 29.227917 5.777645 NewECP "SDD" end
|155> O> -1.0325 23.658815 35.716141 5.780819 NewECP "SDD" end
|156> O> -1.0325 26.616470 22.737257 5.789555 NewECP "SDD" end
|157> O> -1.0325 26.615885 29.227343 5.778389 NewECP "SDD" end
|158> O> -1.0325 26.614958 35.714985 5.782468 NewECP "SDD" end
|159> O> -1.0325 29.573326 22.736258 5.787557 NewECP "SDD" end
|160> O> -1.0325 29.571634 35.714500 5.782328 NewECP "SDD" end
|161> O> -1.0325 32.529274 22.736534 5.785839 NewECP "SDD" end
|162> O> -1.0325 32.527122 29.227104 5.778445 NewECP "SDD" end
|163> O> -1.0325 32.529045 35.714790 5.780762 NewECP "SDD" end
|164> O> -1.0325 35.485294 22.735836 5.783022 NewECP "SDD" end
|165> O> -1.0325 35.484505 29.227753 5.777270 NewECP "SDD" end
|166> O> -1.0325 35.485256 35.716084 5.777386 NewECP "SDD" end
|167> O> -1.0325 22.179079 24.658043 4.477283 NewECP "SDD" end
|168> O> -1.0325 22.178713 31.151831 4.470950 NewECP "SDD" end
|169> O> -1.0325 25.136955 24.657684 4.473379 NewECP "SDD" end
|170> O> -1.0325 25.136108 31.150972 4.469388 NewECP "SDD" end
|171> O> -1.0325 28.094564 24.657654 4.473387 NewECP "SDD" end
|172> O> -1.0325 28.093662 31.150988 4.470094 NewECP "SDD" end
|173> O> -1.0325 31.049370 24.657656 4.473852 NewECP "SDD" end
|174> O> -1.0325 31.048815 31.150785 4.470375 NewECP "SDD" end
|175> O> -1.0325 34.005825 24.657516 4.473279 NewECP "SDD" end
|176> O> -1.0325 34.006214 31.150507 4.468659 NewECP "SDD" end
|177> O> -1.0325 36.964802 24.657703 4.476498 NewECP "SDD" end
|178> O> -1.0325 36.964699 31.150984 4.471011 NewECP "SDD" end
|179> O> -1.0325 22.179108 27.301979 4.475329 NewECP "SDD" end
|180> O> -1.0325 22.179081 33.795967 4.470533 NewECP "SDD" end
|181> O> -1.0325 25.136454 27.302216 4.470807 NewECP "SDD" end
|182> O> -1.0325 25.136965 33.795712 4.467462 NewECP "SDD" end
|183> O> -1.0325 28.094309 27.302021 4.470325 NewECP "SDD" end
|184> O> -1.0325 28.093147 33.795341 4.468426 NewECP "SDD" end
|185> O> -1.0325 31.049263 27.301693 4.472557 NewECP "SDD" end
|186> O> -1.0325 31.049141 33.795300 4.468129 NewECP "SDD" end
|187> O> -1.0325 34.006466 27.301611 4.472795 NewECP "SDD" end
|188> O> -1.0325 34.006298 33.795113 4.466574 NewECP "SDD" end
|189> O> -1.0325 36.964264 27.301313 4.476755 NewECP "SDD" end
|190> O> -1.0325 36.964108 33.795158 4.469213 NewECP "SDD" end
|191> O> -1.0325 23.659464 25.980219 6.428985 NewECP "SDD" end
|192> O> -1.0325 23.659309 32.475105 6.424179 NewECP "SDD" end
|193> O> -1.0325 26.617397 25.983856 6.422927 NewECP "SDD" end
|194> O> -1.0325 26.615185 32.474266 6.424563 NewECP "SDD" end
|195> O> -1.0325 29.572544 25.983980 6.433174 NewECP "SDD" end
|196> O> -1.0325 29.571402 32.474991 6.429692 NewECP "SDD" end
|197> O> -1.0325 32.524960 25.982164 6.429605 NewECP "SDD" end
|198> O> -1.0325 32.526665 32.473999 6.423285 NewECP "SDD" end
|199> O> -1.0325 35.485035 25.978685 6.428752 NewECP "SDD" end
|200> O> -1.0325 35.485344 32.474930 6.423436 NewECP "SDD" end
|201> O> -1.0325 22.178684 28.016052 7.955785 NewECP "SDD" end
|202> O> -1.0325 22.180273 34.509548 7.958743 NewECP "SDD" end
|203> O> -1.0325 25.137516 34.509277 7.961348 NewECP "SDD" end
|204> O> -1.0325 28.093390 34.509472 7.965223 NewECP "SDD" end
|205> O> -1.0325 31.049847 34.508213 7.964369 NewECP "SDD" end
|206> O> -1.0325 34.007992 34.508133 7.958648 NewECP "SDD" end
|207> O> -1.0325 36.963078 28.016300 7.955523 NewECP "SDD" end
|208> O> -1.0325 36.962692 34.509556 7.958804 NewECP "SDD" end
|209> O> -1.0325 22.181944 23.946457 7.968235 NewECP "SDD" end
|210> O> -1.0325 22.179049 30.439434 7.955342 NewECP "SDD" end
|211> O> -1.0325 25.135412 23.950148 7.960183 NewECP "SDD" end
|212> O> -1.0325 25.135855 30.440050 7.958916 NewECP "SDD" end
|213> O> -1.0325 28.095829 23.950338 7.966425 NewECP "SDD" end
|214> O> -1.0325 31.049721 23.949129 7.967694 NewECP "SDD" end
|215> O> -1.0325 34.007439 23.948566 7.963381 NewECP "SDD" end
|216> O> -1.0325 36.962055 23.946039 7.966418 NewECP "SDD" end
|217> O> -1.0325 36.963646 30.439482 7.954334 NewECP "SDD" end
|218> O> -1.0325 23.659300 25.991642 9.008945 NewECP "SDD" end
|219> O> -1.0325 23.657839 32.471378 9.000606 NewECP "SDD" end
|220> O> -1.0325 35.481739 25.991110 9.005132 NewECP "SDD" end
|221> O> -1.0325 35.483345 32.468708 9.001596 NewECP "SDD" end
|222> *
|223> 
|224>                          ****END OF INPUT****
================================================================================

                       ****************************
                       * Single Point Calculation *
                       ****************************

---------------------------------
CARTESIAN COORDINATES (ANGSTROEM)
---------------------------------
  Fe    29.591850   29.001425   11.839077
  N     29.698614   25.633228   12.048136
  N     30.995935   27.685278   11.867390
  N     28.273163   27.600134   11.888092
  N     32.966648   29.109194   11.741404
  N     26.218357   28.896458   11.745732
  N     30.910131   30.404964   11.867431
  N     28.190268   30.320332   11.852822
  N     29.486738   32.370510   12.063440
  C     33.857906   24.018417   11.973957
  C     25.654367   23.753843   11.844493
  C     32.492588   24.314939   12.045897
  C     26.996664   24.135544   11.944453
  C     34.820732   25.036329   11.860461
  C     24.628822   24.712219   11.757520
  C     32.127937   25.658731   11.997677
  C     27.273771   25.501463   11.946433
  C     34.452106   26.384274   11.813712
  C     30.832747   26.306408   11.980724
  C     24.908899   26.081936   11.761035
  C     28.524248   26.232279   11.969651
  C     33.092541   26.677994   11.878802
  C     26.246452   26.459660   11.847226
  C     32.363796   27.931242   11.810417
  C     26.893394   27.758446   11.813144
  C     32.291214   30.247274   11.802290
  C     26.821398   30.074581   11.804911
  C     32.938141   31.545685   11.851909
  C     26.093533   31.328287   11.877799
  C     30.660463   31.772438   11.973743
  C     34.275764   31.926870   11.778481
  C     28.352921   31.698980   11.983142
  C     24.733742   31.624636   11.816725
  C     31.910418   32.501724   11.968808
  C     27.058611   32.345707   12.008235
  C     34.555607   33.295963   11.813254
  C     24.365982   32.971516   11.885628
  C     32.187256   33.866695   12.006487
  C     26.694508   33.688679   12.080955
  C     33.529247   34.250374   11.925345
  C     25.330175   33.986416   12.018261
  H     34.183624   22.976433   11.999062
  H     25.396601   22.692635   11.829052
  H     31.736822   23.532288   12.123851
  H     27.800503   23.400871   12.006990
  H     35.875786   24.771227   11.779950
  H     23.593092   24.383270   11.660362
  H     35.195595   27.171638   11.694110
  H     24.116774   26.822199   11.656800
  H     35.069324   31.189470   11.661652
  H     23.989058   30.838902   11.690221
  H     35.590477   33.628201   11.722837
  H     23.311962   33.240002   11.806828
  H     31.381910   34.598297   12.082129
  H     27.451691   34.468777   12.168254
  H     33.787556   35.311298   11.940024
  H     25.004078   35.027519   12.062127
  Ti    26.612858   29.230352    7.634125
  Ti    29.571186   29.229313    7.636239
  Ti    32.529842   29.227238    7.634027
  Ti    28.102079   25.985106    7.871899
  Ti    28.099688   32.476002    7.876213
  Ti    31.046301   25.982443    7.871747
  Ti    31.046059   32.473816    7.867186
  O     29.570599   29.226429    5.780014
  O     25.137068   28.016798    7.953840
  O     28.092146   28.020117    7.969075
  O     31.049578   28.018797    7.968153
  O     34.005962   28.016159    7.955691
  O     28.092854   30.440514    7.962262
  O     31.050211   30.439350    7.962804
  O     34.005741   30.439831    7.956497
  O     26.617197   25.989172    8.994400
  O     26.615759   32.468967    8.999919
  O     29.571346   25.994465    9.012411
  O     29.573748   32.465775    9.008997
  O     32.525291   25.990503    9.003989
  O     32.526848   32.469116    8.995621
  Ti>   23.659060   22.732183    7.642075
  Ti>   23.657347   29.226843    7.633233
  Ti>   23.658531   35.721058    7.636074
  Ti>   26.616512   22.740301    7.646969
  Ti>   26.615868   35.722874    7.638561
  Ti>   29.572968   22.733719    7.643819
  Ti>   29.572208   35.721405    7.638226
  Ti>   32.529053   22.737013    7.642442
  Ti>   32.528263   35.719227    7.636846
  Ti>   35.484814   22.732891    7.638775
  Ti>   35.484074   29.228168    7.633139
  Ti>   35.485424   35.722168    7.632635
  Ti>   22.181768   22.732203    4.479386
  Ti>   22.179424   29.227369    4.467870
  Ti>   22.180185   35.723721    4.472855
  Ti>   25.139452   22.732058    4.479278
  Ti>   25.135260   29.225237    4.469847
  Ti>   25.136629   35.719444    4.473577
  Ti>   28.094164   22.730436    4.479742
  Ti>   28.091997   29.225050    4.468642
  Ti>   28.091944   35.719044    4.473938
  Ti>   31.051207   22.730062    4.477278
  Ti>   31.048594   29.225182    4.470978
  Ti>   31.049814   35.719952    4.473803
  Ti>   34.007732   22.730465    4.474930
  Ti>   34.006836   29.225245    4.468871
  Ti>   34.007729   35.719383    4.470376
  Ti>   36.964394   22.730755    4.474236
  Ti>   36.964455   29.225245    4.469948
  Ti>   36.964912   35.719898    4.470191
  Ti>   23.656536   25.978588    4.473283
  Ti>   23.656404   32.473564    4.465249
  Ti>   26.615122   25.978857    4.465275
  Ti>   26.614237   32.471741    4.459029
  Ti>   29.571308   25.977766    4.444798
  Ti>   29.570946   32.472054    4.445079
  Ti>   32.527859   25.978468    4.453417
  Ti>   32.527706   32.472786    4.449509
  Ti>   35.484974   25.977592    4.470727
  Ti>   35.485096   32.471973    4.467006
  Ti>   22.168146   25.980883    7.893442
  Ti>   22.174110   32.474434    7.882799
  Ti>   25.133904   25.982531    7.877229
  Ti>   25.138905   32.476006    7.873893
  Ti>   34.000690   25.980593    7.876651
  Ti>   34.001907   32.475945    7.871064
  Ti>   36.966042   25.980869    7.888977
  Ti>   36.967777   32.474644    7.886752
  O >   23.659781   22.735092    5.786838
  O >   23.657917   29.227917    5.777645
  O >   23.658815   35.716141    5.780819
  O >   26.616470   22.737257    5.789555
  O >   26.615885   29.227343    5.778389
  O >   26.614958   35.714985    5.782468
  O >   29.573326   22.736258    5.787557
  O >   29.571634   35.714500    5.782328
  O >   32.529274   22.736534    5.785839
  O >   32.527122   29.227104    5.778445
  O >   32.529045   35.714790    5.780762
  O >   35.485294   22.735836    5.783022
  O >   35.484505   29.227753    5.777270
  O >   35.485256   35.716084    5.777386
  O >   22.179079   24.658043    4.477283
  O >   22.178713   31.151831    4.470950
  O >   25.136955   24.657684    4.473379
  O >   25.136108   31.150972    4.469388
  O >   28.094564   24.657654    4.473387
  O >   28.093662   31.150988    4.470094
  O >   31.049370   24.657656    4.473852
  O >   31.048815   31.150785    4.470375
  O >   34.005825   24.657516    4.473279
  O >   34.006214   31.150507    4.468659
  O >   36.964802   24.657703    4.476498
  O >   36.964699   31.150984    4.471011
  O >   22.179108   27.301979    4.475329
  O >   22.179081   33.795967    4.470533
  O >   25.136454   27.302216    4.470807
  O >   25.136965   33.795712    4.467462
  O >   28.094309   27.302021    4.470325
  O >   28.093147   33.795341    4.468426
  O >   31.049263   27.301693    4.472557
  O >   31.049141   33.795300    4.468129
  O >   34.006466   27.301611    4.472795
  O >   34.006298   33.795113    4.466574
  O >   36.964264   27.301313    4.476755
  O >   36.964108   33.795158    4.469213
  O >   23.659464   25.980219    6.428985
  O >   23.659309   32.475105    6.424179
  O >   26.617397   25.983856    6.422927
  O >   26.615185   32.474266    6.424563
  O >   29.572544   25.983980    6.433174
  O >   29.571402   32.474991    6.429692
  O >   32.524960   25.982164    6.429605
  O >   32.526665   32.473999    6.423285
  O >   35.485035   25.978685    6.428752
  O >   35.485344   32.474930    6.423436
  O >   22.178684   28.016052    7.955785
  O >   22.180273   34.509548    7.958743
  O >   25.137516   34.509277    7.961348
  O >   28.093390   34.509472    7.965223
  O >   31.049847   34.508213    7.964369
  O >   34.007992   34.508133    7.958648
  O >   36.963078   28.016300    7.955523
  O >   36.962692   34.509556    7.958804
  O >   22.181944   23.946457    7.968235
  O >   22.179049   30.439434    7.955342
  O >   25.135412   23.950148    7.960183
  O >   25.135855   30.440050    7.958916
  O >   28.095829   23.950338    7.966425
  O >   31.049721   23.949129    7.967694
  O >   34.007439   23.948566    7.963381
  O >   36.962055   23.946039    7.966418
  O >   36.963646   30.439482    7.954334
  O >   23.659300   25.991642    9.008945
  O >   23.657839   32.471378    9.000606
  O >   35.481739   25.991110    9.005132
  O >   35.483345   32.468708    9.001596

----------------------------
CARTESIAN COORDINATES (A.U.)
----------------------------
  NO LB      ZA    FRAG     MASS         X           Y           Z
   0 Fe   26.0000    0    55.850   55.920492   54.804751   22.372613
   1 N     7.0000    0    14.007   56.122247   48.439781   22.767677
   2 N     7.0000    0    14.007   58.573828   52.317593   22.426117
   3 N     7.0000    0    14.007   53.428535   52.156695   22.465238
   4 N     7.0000    0    14.007   62.297936   55.008405   22.188038
   5 N     7.0000    0    14.007   49.545514   54.606392   22.196217
   6 N     7.0000    0    14.007   58.411682   57.457055   22.426195
   7 N     7.0000    0    14.007   53.271886   57.297124   22.398587
   8 N     7.0000    0    14.007   55.721859   61.171399   22.796598
   9 C     6.0000    0    12.011   63.982170   45.388230   22.627499
  10 C     6.0000    0    12.011   48.479728   44.888258   22.382848
  11 C     6.0000    0    12.011   61.402093   45.948576   22.763446
  12 C     6.0000    0    12.011   51.016301   45.609568   22.571745
  13 C     6.0000    0    12.011   65.801647   47.311805   22.413023
  14 C     6.0000    0    12.011   46.541729   46.699326   22.218493
  15 C     6.0000    0    12.011   60.713002   48.487975   22.672324
  16 C     6.0000    0    12.011   51.539958   48.190781   22.575487
  17 C     6.0000    0    12.011   65.105045   49.859052   22.324680
  18 C     6.0000    0    12.011   58.265448   49.711907   22.640287
  19 C     6.0000    0    12.011   47.070997   49.287716   22.225135
  20 C     6.0000    0    12.011   53.903017   49.571823   22.619362
  21 C     6.0000    0    12.011   62.535840   50.414102   22.447683
  22 C     6.0000    0    12.011   49.598606   50.001511   22.388013
  23 C     6.0000    0    12.011   61.158711   52.782398   22.318454
  24 C     6.0000    0    12.011   50.821149   52.455861   22.323607
  25 C     6.0000    0    12.011   61.021551   57.159064   22.303096
  26 C     6.0000    0    12.011   50.685097   56.832722   22.308049
  27 C     6.0000    0    12.011   62.244066   59.612705   22.396862
  28 C     6.0000    0    12.011   49.309631   59.201883   22.445787
  29 C     6.0000    0    12.011   57.939878   60.041206   22.627095
  30 C     6.0000    0    12.011   64.771807   60.333041   22.258103
  31 C     6.0000    0    12.011   53.579256   59.902391   22.644857
  32 C     6.0000    0    12.011   46.739999   59.761901   22.330374
  33 C     6.0000    0    12.011   60.301951   61.419357   22.617769
  34 C     6.0000    0    12.011   51.133364   61.124528   22.692276
  35 C     6.0000    0    12.011   65.300634   62.920251   22.323815
  36 C     6.0000    0    12.011   46.045033   62.307135   22.460582
  37 C     6.0000    0    12.011   60.825099   63.998779   22.688972
  38 C     6.0000    0    12.011   50.445309   63.662377   22.829696
  39 C     6.0000    0    12.011   63.361094   64.723827   22.535636
  40 C     6.0000    0    12.011   47.867094   64.225019   22.711222
  41 H     1.0000    0     1.008   64.597688   43.419166   22.674941
  42 H     1.0000    0     1.008   47.992621   42.882865   22.353669
  43 H     1.0000    0     1.008   59.973902   44.469580   22.910758
  44 H     1.0000    0     1.008   52.535337   44.221237   22.689923
  45 H     1.0000    0     1.008   67.795410   46.810835   22.260879
  46 H     1.0000    0     1.008   44.584483   46.077703   22.034891
  47 H     1.0000    0     1.008   66.510036   51.346954   22.098665
  48 H     1.0000    0     1.008   45.574098   50.686610   22.028160
  49 H     1.0000    0     1.008   66.271418   58.939557   22.037329
  50 H     1.0000    0     1.008   45.332750   58.277079   22.091316
  51 H     1.0000    0     1.008   67.256255   63.548090   22.152951
  52 H     1.0000    0     1.008   44.053224   62.814500   22.311671
  53 H     1.0000    0     1.008   59.303215   65.381306   22.831915
  54 H     1.0000    0     1.008   51.876178   65.136549   22.994668
  55 H     1.0000    0     1.008   63.849228   66.728683   22.563375
  56 H     1.0000    0     1.008   47.250860   66.192418   22.794117
  57 Ti   22.0000    0    47.900   50.291013   55.237360   14.426406
  58 Ti   22.0000    0    47.900   55.881443   55.235397   14.430400
  59 Ti   22.0000    0    47.900   61.472493   55.231475   14.426220
  60 Ti   22.0000    0    47.900   53.105233   49.104734   14.875733
  61 Ti   22.0000    0    47.900   53.100715   61.370750   14.883886
  62 Ti   22.0000    0    47.900   58.669006   49.099702   14.875446
  63 Ti   22.0000    0    47.900   58.668549   61.366619   14.866827
  64 O     8.0000    0    15.999   55.880334   55.229947   10.922644
  65 O     8.0000    0    15.999   47.502174   52.944075   15.030579
  66 O     8.0000    0    15.999   53.086462   52.950347   15.059369
  67 O     8.0000    0    15.999   58.675199   52.947853   15.057627
  68 O     8.0000    0    15.999   64.261955   52.942868   15.034077
  69 O     8.0000    0    15.999   53.087800   57.524235   15.046495
  70 O     8.0000    0    15.999   58.676395   57.522035   15.047519
  71 O     8.0000    0    15.999   64.261537   57.522944   15.035600
  72 O     8.0000    0    15.999   50.299213   49.112418   16.996953
  73 O     8.0000    0    15.999   50.296495   61.357455   17.007382
  74 O     8.0000    0    15.999   55.881745   49.122420   17.030989
  75 O     8.0000    0    15.999   55.886284   61.351423   17.024537
  76 O     8.0000    0    15.999   61.463892   49.114933   17.015073
  77 O     8.0000    0    15.999   61.466835   61.357737   16.999260
  78 Ti>   2.0650    0     0.000   44.709144   42.957600   14.441429
  79 Ti>   2.0650    0     0.000   44.705907   55.230729   14.424720
  80 Ti>   2.0650    0     0.000   44.708144   67.503017   14.430089
  81 Ti>   2.0650    0     0.000   50.297918   42.972941   14.450677
  82 Ti>   2.0650    0     0.000   50.296701   67.506449   14.434788
  83 Ti>   2.0650    0     0.000   55.884810   42.960503   14.444725
  84 Ti>   2.0650    0     0.000   55.883374   67.503673   14.434155
  85 Ti>   2.0650    0     0.000   61.471002   42.966728   14.442122
  86 Ti>   2.0650    0     0.000   61.469509   67.499557   14.431547
  87 Ti>   2.0650    0     0.000   67.056580   42.958938   14.435193
  88 Ti>   2.0650    0     0.000   67.055182   55.233233   14.424542
  89 Ti>   2.0650    0     0.000   67.057733   67.505114   14.423590
  90 Ti>   2.0650    0     0.000   41.917467   42.957638    8.464813
  91 Ti>   2.0650    0     0.000   41.913037   55.231723    8.443051
  92 Ti>   2.0650    0     0.000   41.914475   67.508049    8.452471
  93 Ti>   2.0650    0     0.000   47.506679   42.957364    8.464609
  94 Ti>   2.0650    0     0.000   47.498758   55.227694    8.446787
  95 Ti>   2.0650    0     0.000   47.501345   67.499967    8.453835
  96 Ti>   2.0650    0     0.000   53.090276   42.954299    8.465486
  97 Ti>   2.0650    0     0.000   53.086181   55.227341    8.444510
  98 Ti>   2.0650    0     0.000   53.086081   67.499211    8.454518
  99 Ti>   2.0650    0     0.000   58.678277   42.953592    8.460829
 100 Ti>   2.0650    0     0.000   58.673340   55.227590    8.448924
 101 Ti>   2.0650    0     0.000   58.675645   67.500927    8.454262
 102 Ti>   2.0650    0     0.000   64.265300   42.954354    8.456392
 103 Ti>   2.0650    0     0.000   64.263607   55.227709    8.444942
 104 Ti>   2.0650    0     0.000   64.265294   67.499852    8.447786
 105 Ti>   2.0650    0     0.000   69.852581   42.954902    8.455081
 106 Ti>   2.0650    0     0.000   69.852697   55.227709    8.446978
 107 Ti>   2.0650    0     0.000   69.853560   67.500825    8.447437
 108 Ti>   2.0650    0     0.000   44.704374   49.092417    8.453280
 109 Ti>   2.0650    0     0.000   44.704125   61.366143    8.438098
 110 Ti>   2.0650    0     0.000   50.295292   49.092925    8.438147
 111 Ti>   2.0650    0     0.000   50.293619   61.362698    8.426344
 112 Ti>   2.0650    0     0.000   55.881674   49.090863    8.399451
 113 Ti>   2.0650    0     0.000   55.880989   61.363289    8.399982
 114 Ti>   2.0650    0     0.000   61.468745   49.092190    8.415738
 115 Ti>   2.0650    0     0.000   61.468456   61.364672    8.408353
 116 Ti>   2.0650    0     0.000   67.056883   49.090534    8.448450
 117 Ti>   2.0650    0     0.000   67.057113   61.363136    8.441418
 118 Ti>   2.0650    0     0.000   41.891725   49.096754   14.916444
 119 Ti>   2.0650    0     0.000   41.902995   61.367787   14.896331
 120 Ti>   2.0650    0     0.000   47.496195   49.099868   14.885806
 121 Ti>   2.0650    0     0.000   47.505646   61.370757   14.879501
 122 Ti>   2.0650    0     0.000   64.251992   49.096206   14.884713
 123 Ti>   2.0650    0     0.000   64.254292   61.370642   14.874155
 124 Ti>   2.0650    0     0.000   69.855696   49.096727   14.908006
 125 Ti>   2.0650    0     0.000   69.858974   61.368183   14.903801
 126 O >  -1.0325    0     0.000   44.710506   42.963098   10.935539
 127 O >  -1.0325    0     0.000   44.706984   55.232759   10.918167
 128 O >  -1.0325    0     0.000   44.708681   67.493725   10.924165
 129 O >  -1.0325    0     0.000   50.297839   42.967189   10.940673
 130 O >  -1.0325    0     0.000   50.296733   55.231674   10.919573
 131 O >  -1.0325    0     0.000   50.294982   67.491541   10.927281
 132 O >  -1.0325    0     0.000   55.885487   42.965301   10.936898
 133 O >  -1.0325    0     0.000   55.882290   67.490624   10.927016
 134 O >  -1.0325    0     0.000   61.471419   42.965822   10.933651
 135 O >  -1.0325    0     0.000   61.467353   55.231222   10.919679
 136 O >  -1.0325    0     0.000   61.470986   67.491172   10.924057
 137 O >  -1.0325    0     0.000   67.057487   42.964503   10.928328
 138 O >  -1.0325    0     0.000   67.055996   55.232449   10.917458
 139 O >  -1.0325    0     0.000   67.057416   67.493617   10.917677
 140 O >  -1.0325    0     0.000   41.912385   46.596948    8.460839
 141 O >  -1.0325    0     0.000   41.911694   58.868429    8.448871
 142 O >  -1.0325    0     0.000   47.501961   46.596270    8.453461
 143 O >  -1.0325    0     0.000   47.500360   58.866806    8.445919
 144 O >  -1.0325    0     0.000   53.091032   46.596213    8.453476
 145 O >  -1.0325    0     0.000   53.089327   58.866836    8.447253
 146 O >  -1.0325    0     0.000   58.674806   46.596217    8.454355
 147 O >  -1.0325    0     0.000   58.673757   58.866453    8.447784
 148 O >  -1.0325    0     0.000   64.261696   46.595952    8.453272
 149 O >  -1.0325    0     0.000   64.262431   58.865927    8.444542
 150 O >  -1.0325    0     0.000   69.853352   46.596306    8.459355
 151 O >  -1.0325    0     0.000   69.853158   58.866829    8.448986
 152 O >  -1.0325    0     0.000   41.912440   51.593263    8.457146
 153 O >  -1.0325    0     0.000   41.912389   63.865122    8.448083
 154 O >  -1.0325    0     0.000   47.501014   51.593711    8.448601
 155 O >  -1.0325    0     0.000   47.501980   63.864640    8.442280
 156 O >  -1.0325    0     0.000   53.090550   51.593343    8.447690
 157 O >  -1.0325    0     0.000   53.088354   63.863939    8.444101
 158 O >  -1.0325    0     0.000   58.674604   51.592723    8.451908
 159 O >  -1.0325    0     0.000   58.674373   63.863862    8.443540
 160 O >  -1.0325    0     0.000   64.262908   51.592568    8.452358
 161 O >  -1.0325    0     0.000   64.262590   63.863508    8.440602
 162 O >  -1.0325    0     0.000   69.852336   51.592005    8.459841
 163 O >  -1.0325    0     0.000   69.852041   63.863593    8.445589
 164 O >  -1.0325    0     0.000   44.709907   49.095499   12.149021
 165 O >  -1.0325    0     0.000   44.709615   61.369055   12.139939
 166 O >  -1.0325    0     0.000   50.299591   49.102372   12.137573
 167 O >  -1.0325    0     0.000   50.295411   61.367469   12.140665
 168 O >  -1.0325    0     0.000   55.884009   49.102606   12.156937
 169 O >  -1.0325    0     0.000   55.881851   61.368839   12.150357
 170 O >  -1.0325    0     0.000   61.463267   49.099174   12.150193
 171 O >  -1.0325    0     0.000   61.466489   61.366965   12.138250
 172 O >  -1.0325    0     0.000   67.056998   49.092600   12.148581
 173 O >  -1.0325    0     0.000   67.057582   61.368724   12.138535
 174 O >  -1.0325    0     0.000   41.911639   52.942666   15.034255
 175 O >  -1.0325    0     0.000   41.914642   65.213595   15.039845
 176 O >  -1.0325    0     0.000   47.503021   65.213083   15.044767
 177 O >  -1.0325    0     0.000   53.088813   65.213451   15.052090
 178 O >  -1.0325    0     0.000   58.675707   65.211072   15.050476
 179 O >  -1.0325    0     0.000   64.265791   65.210921   15.039665
 180 O >  -1.0325    0     0.000   69.850094   52.943134   15.033760
 181 O >  -1.0325    0     0.000   69.849365   65.213610   15.039960
 182 O >  -1.0325    0     0.000   41.917799   45.252246   15.057782
 183 O >  -1.0325    0     0.000   41.912329   57.522194   15.033418
 184 O >  -1.0325    0     0.000   47.499045   45.259221   15.042566
 185 O >  -1.0325    0     0.000   47.499882   57.523358   15.040172
 186 O >  -1.0325    0     0.000   53.093422   45.259580   15.054362
 187 O >  -1.0325    0     0.000   58.675469   45.257295   15.056760
 188 O >  -1.0325    0     0.000   64.264746   45.256231   15.048609
 189 O >  -1.0325    0     0.000   69.848161   45.251456   15.054348
 190 O >  -1.0325    0     0.000   69.851168   57.522285   15.031513
 191 O >  -1.0325    0     0.000   44.709598   49.117085   17.024439
 192 O >  -1.0325    0     0.000   44.706837   61.362012   17.008680
 193 O >  -1.0325    0     0.000   67.050769   49.116080   17.017233
 194 O >  -1.0325    0     0.000   67.053804   61.356966   17.010551
> coreless ECP center with (optional) point charge

--------------------------------
INTERNAL COORDINATES (ANGSTROEM)
--------------------------------
 Fe     0   0   0     0.000000000000     0.00000000     0.00000000
 N      1   0   0     3.376367167236     0.00000000     0.00000000
 N      1   2   0     1.924707572283    45.07825012     0.00000000
 N      1   2   3     1.924825794942    45.07658403   176.16658694
 N      3   1   2     2.434567513055   100.94146280   180.98910528
 N      4   1   2     2.433711153817   100.90409919   180.13920352
 N      1   2   3     1.925770097597   134.78902621   352.92248434
 N      1   2   3     1.924613390372   134.92748994   181.77529627
 N      7   1   2     2.434715227423   100.91535712   190.38714888
 C      2   1   3     4.462379077468   112.91969193   359.81302082
 C      2   1   3     4.464245988595   112.86099435   186.69749478
 C     10   2   1     1.398997462903     9.17878742   171.57807321
 C     11   2   1     1.399088593053     9.15574041   184.60109938
 C     10   2   1     1.405724044056   112.19221186   359.64580885
 C     11   2   1     1.406339719673   112.12051467   357.80309585
 C     12  10  14     1.393223765037   117.26355469     0.12671277
 C     13  11  15     1.393745645521   117.27275464   359.64308907
 C     14  10   2     1.398222557357   121.34606331     1.43786580
 C      2   1   3     1.320595832128    61.01859446     0.97160690
 C     15  11   2     1.398062996164   121.42672740   359.04468840
 C      2   1   3     1.320665551070    61.03351171   184.28496737
 C     18  14  10     1.392452920470   117.33559339   359.75471462
 C     20  15  11     1.392534500997   117.27925143     0.32555923
 C      5   3   1     1.325052543251    27.01083164   180.67835729
 C      6   4   1     1.324873820881    27.04016444   177.71046154
 C      5   3   1     1.324818583713    95.01184594     4.34217529
 C      6   4   1     1.324814856820    94.97615294   354.99737454
 C     26   5   3     1.451498437275   122.87342036   176.15664606
 C     27   6   4     1.451509164010   122.82504060   185.36784883
 C      9   7   1     1.320365875285    27.02121369   179.49068529
 C     28  26   5     1.392813327599   132.14802581     3.98962018
 C      9   7   1     1.320205021651    94.96525607   356.05502948
 C     29  27   6     1.393048573079   132.14620142   355.18085732
 C     28  26   5     1.408506482218   106.54725314   182.51476596
 C     29  27   6     1.408379406474   106.55848978   176.49961336
 C     31  28  26     1.397832933089   117.32300891   177.77978991
 C     33  29  27     1.397884392720   117.36217488   181.68293510
 C     34  28  26     1.393271264372   121.48252676   181.73157227
 C     35  29  27     1.393353144681   121.47016649   178.82896097
 C     38  34  28     1.398117821675   117.25822490   359.91145662
 C     39  35  29     1.397849202773   117.25831133   359.95961359
 H     10   2   1     1.091995024167   128.53084085   181.81559727
 H     11   2   1     1.092174049546   128.57236095   176.08603547
 H     12  10  42     1.090780298994   121.85575801   359.81061078
 H     13  11  43     1.090785236066   121.82767910     0.06074369
 H     14  10   2     1.090825391362   119.50165546   183.11063377
 H     15  11   2     1.091047090856   119.49205238   177.51579977
 H     18  14  10     1.089505667732   121.36273300   181.95798595
 H     20  15  11     1.089181463310   121.32790819   177.72357074
 H     31  28  26     1.089561952732   121.32550998     0.00000000
 H     33  29  27     1.089924511436   121.24234441   359.89893185
 H     36  31  28     1.090648082304   119.09493262   182.10211876
 H     37  33  29     1.090528464826   119.20456560   177.95686849
 H     38  34  28     1.090662816036   120.81845846   179.07272007
 H     39  35  29     1.090642058832   120.80789457   180.83785693
 H     40  38  34     1.092015909361   119.52999413   179.31034446
 H     41  39  35     1.091860309735   119.52438120   180.58943310
 Ti     6   4   1     4.143962881673    91.17915403    81.03192789
 Ti    58   6   4     2.958328937779    95.42033407   328.26221263
 Ti    59  58   6     2.958657554518   179.91385226   161.89019548
 Ti    59  58   6     3.569130156200    65.71672443    81.18328037
 Ti    59  58   6     3.572657742830    65.66011414   269.60211374
 Ti    61  59  58     2.944223208243    65.74515470   179.94944626
 Ti    62  59  58     2.946385639214    65.62194085   180.23520196
 O     59  58   6     1.856227333235    89.94096937   175.26670302
 O     58   6   4     1.937236979887    73.33682344   108.61704295
 O     59  58   6     1.939199342747    40.32689504    69.92573673
 O     59  58   6     1.939370721475   139.69804658    70.06279924
 O     60  59  65     1.936261947035   139.70011162   255.15364163
 O     59  58   6     1.938753300746    40.30465099   280.47393023
 O     59  58   6     1.938646226422   139.71319980   280.40609100
 O     60  59  65     1.937174886981   139.58055512   105.01774477
 O     61  59  58     1.861424073467   111.48032198   319.67770296
 O     62  59  58     1.861399995353   111.43641566    40.36885419
 O     61  59  58     1.860000196321    73.18793329   219.69303085
 O     62  59  58     1.859074249670    73.10319858   140.58863294
 O     63  61  59     1.862645519218   142.56005014    93.67614218
 O     64  62  59     1.861752857322   142.51517050   266.03277687
 Ti>   47  15  11     4.344775077373   100.51654844   290.71397564
 Ti>   66  58   6     1.938187810382    99.39311548   101.50689996
 Ti>   74  62  59     4.602321859702   109.31019776   209.30458767
 Ti>   79  47  15     2.957467190936    90.72249932    14.32169651
 Ti>   81  74  62     2.957338603304    50.03150638   323.88411382
 Ti>   82  79  47     2.956465004894   179.67531463   141.02644045
 Ti>   83  81  74     2.956340383952   179.91608797    63.36458535
 Ti>   84  82  79     2.956087155987   179.80553743   161.48872781
 Ti>   85  83  81     2.956056124486   179.97552139    15.17853630
 Ti>   86  84  82     2.955766148885   179.84955328   186.98582751
 Ti>   69  60  59     1.938509915716    99.35730952   180.06140074
 Ti>   87  85  83     2.957165460694   179.88665208    95.22418844
 Ti>   79  47  15     3.490700984671   146.25529509   232.74025687
 Ti>   80  66  58     3.493390844491   118.22706647    96.30501174
 Ti>   81  74  62     3.491628334924   122.75578674    60.70966540
 Ti>   91  79  47     2.957684005526    64.96481446   136.83688833
 Ti>   92  80  66     2.955837430044    64.93358449   314.92847147
 Ti>   93  81  74     2.956447181864    64.93670627   302.95852314
 Ti>   94  91  79     2.954712481634   179.96928437    68.83654789
 Ti>   65  59  58     1.976350752885   131.58794450     0.00000000
 Ti>   96  93  81     2.955315049118   179.92454212   264.67267207
 Ti>   97  94  91     2.957044050233   179.93831227   134.26813314
 Ti>   65  59  58     1.974346986811   131.51267188   179.94931958
 Ti>   99  96  93     2.957870142449   179.97289432   344.54394355
 Ti>  100  97  94     2.956525959828   179.98477779    75.35691322
 Ti>  101  65  59     2.958242751023   138.51000771     0.04409169
 Ti>  102  99  96     2.957917039965   179.93010879   266.60965912
 Ti>  103 100  97     2.956662095671   179.96787107    85.44805221
 Ti>  104 101  65     2.957619196092   179.93831524     1.18945391
 Ti>  105 102  99     2.957183050631   179.93378411   185.67402536
 Ti>   91  79  47     3.565668726713    80.00957158    69.24459102
 Ti>   92  80  66     3.566406982954    79.95609400   247.30766104
 Ti>  109  91  79     2.958596849829   114.43671919    67.09362348
 Ti>  110  92  80     2.957840101766   114.42968844    67.08809767
 Ti>  111 109  91     2.956257120821   179.75677818    83.81675956
 Ti>  112 110  92     2.956741925016   179.84455390   105.42913629
 Ti>  113 111 109     2.956563646460   179.43502915   182.69426050
 Ti>  114 112 110     2.956763409257   179.64373920   163.25634155
 Ti>  115 113 111     2.957165792901   179.82888803    13.82001020
 Ti>  116 114 112     2.957441870617   179.74510130     8.05021151
 Ti>   80  66  58     3.580738005451    74.90306101   170.39780344
 Ti>   81  74  62     3.578399967617    66.73476293   125.73595730
 Ti>   73  61  59     1.856952683827   105.92588098   102.37953089
 Ti>   74  62  59     1.857170384621   105.54039867   257.61557576
 Ti>   77  63  61     1.856822927353   105.17927745   180.02494490
 Ti>   78  64  62     1.854851512917   105.36887420   180.13977396
 Ti>  123  77  63     2.965377630312   142.37764304   179.93435834
 Ti>  124  78  64     2.965911775971   142.37506384   180.10685369
 O >   79  47  15     1.855239420746   157.55760908   282.38259130
 O >   80  66  58     1.855588398358    99.52875980    78.57991026
 O >   81  74  62     1.855261537512   107.11954227    38.97869460
 O >   82  79  47     1.857416494784    89.90363404   202.24518604
 O >   58   6   4     1.855740908237   172.84556366   106.72596330
 O >   83  81  74     1.856109988409    89.92357695   112.45980156
 O >   84  82 130     1.856263770947    90.07192200     0.17229483
 O >   85  83 132     1.855910933990    89.98887784     0.03035738
 O >   86  84 133     1.856603074944    90.03349314   359.90685329
 O >   60  59  65     1.855583998390    89.95885253     0.08483607
 O >   87  85 134     1.856089468088    90.05098832     0.07623653
 O >   88  86 135     1.855755398870    90.08577557     0.10571922
 O >   89  69  60     1.855869096447    99.58025698   281.43375926
 O >   90  87 137     1.855258983345    90.07621352   359.94910360
 O >   91  79  47     1.925843025516    90.09087232    46.78793695
 O >   92  80  66     1.924464596028    89.93449416   224.82890818
 O >   94  91  79     1.925636654482    89.92290125   269.82542643
 O >   95  92  80     1.925735241410    89.98389457   269.99613187
 O >   97  94 143     1.927228519286    89.98040963     0.00000000
 O >   98  65  59     1.925939267052    89.89430170    89.91700832
 O >  100  97 145     1.927597919920    89.93823539     0.08704238
 O >  101  65  59     1.925603107096    89.98063056   270.07777958
 O >  103 100 147     1.927052650825    89.95114933     0.05274447
 O >  104 101  65     1.925262112148    89.98271398   270.04968179
 O >  106 103 149     1.926949370848    90.01773543     0.11636244
 O >  107 104 150     1.925739308844    90.00727115     0.03792676
 O >   92  80  66     1.925404474036    89.79422976    44.98930857
 O >   93  81  74     1.927755714559    90.03271653    32.88796106
 O >   95  92  80     1.923021610299    90.07692051    89.98122612
 O >   96  93  81     1.923741748246    90.09285041    90.17265122
 O >   98  65  59     1.923031126288    89.95516977   269.90826671
 O >   99  96 156     1.923711272921    90.04356499     0.00000000
 O >  101  65  59     1.923489764445    90.01992119    90.03842868
 O >  102  99 158     1.924660481308    89.96238453     0.00000000
 O >  104 101  65     1.923638037842    89.98767607    89.93913509
 O >  105 102 160     1.924274288106    89.96854446   359.94432064
 O >  107 104 161     1.923944051254    89.99438577   359.91416337
 O >  108 105 162     1.924740416394    89.96609012   359.91590631
 O >  109  91  79     1.955704871945    89.98091612   337.02617984
 O >  110  92  80     1.958932760103    90.03410558   337.03356232
 O >  111 109  91     1.957659704527    89.91151534   269.89094648
 O >  112 110  92     1.965535850471    89.90710256   269.91789623
 O >  113 111 167     1.988386094014    89.63867967   359.96726057
 O >  114 112 168     1.984615225598    89.74284971     0.00000000
 O >  115 113 145     1.976193582613    90.08300381   271.32061292
 O >  116 114 146     1.973776647249    90.05563403   271.14587811
 O >  117 115 171     1.958025306015    90.33716267     0.07514984
 O >  118 116 172     1.956432250361    90.34621750   359.94860191
 O >   80  66  58     1.938168957019    99.49191975   180.10341500
 O >   81  74  62     1.938328784862    89.94562970   138.89918218
 O >   81  74  62     1.939487818281    11.13400610   350.72883443
 O >   83  81  74     1.939619482355   139.59800657     7.70124659
 O >   87  85 134     1.938953349821    40.35033196   255.12275912
 O >   87  85 134     1.939046961133   139.77410352   255.28947812
 O >   89  69  60     1.939074089584    99.39111214   179.98521377
 O >   90  87 137     1.938848839629   139.55841901   255.00679580
 O >   79  47  15     1.939771473688    66.11161476   228.72038160
 O >   80  66  58     1.938942009954   160.91575250   258.87678186
 O >   82  79  47     1.937908662245    40.33328508   306.91519424
 O >   58   6   4     1.936593996400    79.12430168   188.62231784
 O >   82  79  47     1.937684304471   139.94516029   307.06669538
 O >   84  82 130     1.939823679290   139.43837089   105.04551148
 O >   86  84 133     1.938166060617   139.76437759   104.80826254
 O >   88  86 135     1.939412018482   139.51818382   105.18442521
 O >   89  69  60     1.938963934117   160.88669341   101.58440705
 O >  121  73  61     1.858849394597   105.50752415   180.15967914
 O >  120  81  74     1.857674237811    73.24117188    23.52142013
 O >  125 123  77     1.857165113261    37.18151438     0.00000000
 O >  126 124  78     1.856461888393    37.21101677   359.95789339

---------------------------
INTERNAL COORDINATES (A.U.)
---------------------------
 Fe     0   0   0     0.000000000000     0.00000000     0.00000000
 N      1   0   0     6.380409273639     0.00000000     0.00000000
 N      1   2   0     3.637170199499    45.07825012     0.00000000
 N      1   2   3     3.637393607948    45.07658403   176.16658694
 N      3   1   2     4.600665854215   100.94146280   180.98910528
 N      4   1   2     4.599047569783   100.90409919   180.13920352
 N      1   2   3     3.639178081353   134.78902621   352.92248434
 N      1   2   3     3.636992221480   134.92748994   181.77529627
 N      7   1   2     4.600944993917   100.91535712   190.38714888
 C      2   1   3     8.432674362155   112.91969193   359.81302082
 C      2   1   3     8.436202312900   112.86099435   186.69749478
 C     10   2   1     2.643722066937     9.17878742   171.57807321
 C     11   2   1     2.643894277963     9.15574041   184.60109938
 C     10   2   1     2.656433463133   112.19221186   359.64580885
 C     11   2   1     2.657596921438   112.12051467   357.80309585
 C     12  10  14     2.632811359191   117.26355469     0.12671277
 C     13  11  15     2.633797570381   117.27275464   359.64308907
 C     14  10   2     2.642257707676   121.34606331     1.43786580
 C      2   1   3     2.495564456319    61.01859446     0.97160690
 C     15  11   2     2.641956180719   121.42672740   359.04468840
 C      2   1   3     2.495696206026    61.03351171   184.28496737
 C     18  14  10     2.631354674067   117.33559339   359.75471462
 C     20  15  11     2.631508838920   117.27925143     0.32555923
 C      5   3   1     2.503986419801    27.01083164   180.67835729
 C      6   4   1     2.503648683468    27.04016444   177.71046154
 C      5   3   1     2.503544300347    95.01184594     4.34217529
 C      6   4   1     2.503537257540    94.97615294   354.99737454
 C     26   5   3     2.742934530264   122.87342036   176.15664606
 C     27   6   4     2.742954800856   122.82504060   185.36784883
 C      9   7   1     2.495129900865    27.02121369   179.49068529
 C     28  26   5     2.632035744838   132.14802581     3.98962018
 C      9   7   1     2.494825931548    94.96525607   356.05502948
 C     29  27   6     2.632480294369   132.14620142   355.18085732
 C     28  26   5     2.661691509245   106.54725314   182.51476596
 C     29  27   6     2.661451370890   106.55848978   176.49961336
 C     31  28  26     2.641521424513   117.32300891   177.77978991
 C     33  29  27     2.641618669123   117.36217488   181.68293510
 C     34  28  26     2.632901119926   121.48252676   181.73157227
 C     35  29  27     2.633055851285   121.47016649   178.82896097
 C     38  34  28     2.642059785921   117.25822490   359.91145662
 C     39  35  29     2.641552169762   117.25831133   359.95961359
 H     10   2   1     2.063571535280   128.53084085   181.81559727
 H     11   2   1     2.063909844217   128.57236095   176.08603547
 H     12  10  42     2.061276037375   121.85575801   359.81061078
 H     13  11  43     2.061285367089   121.82767910     0.06074369
 H     14  10   2     2.061361249602   119.50165546   183.11063377
 H     15  11   2     2.061780200929   119.49205238   177.51579977
 H     18  14  10     2.058867333369   121.36273300   181.95798595
 H     20  15  11     2.058254675800   121.32790819   177.72357074
 H     31  28  26     2.058973696604   121.32550998     0.00000000
 H     33  29  27     2.059658833261   121.24234441   359.89893185
 H     36  31  28     2.061026184041   119.09493262   182.10211876
 H     37  33  29     2.060800139767   119.20456560   177.95686849
 H     38  34  28     2.061054026760   120.81845846   179.07272007
 H     39  35  29     2.061014801329   120.80789457   180.83785693
 H     40  38  34     2.063611002578   119.52999413   179.31034446
 H     41  39  35     2.063316961897   119.52438120   180.58943310
 Ti     6   4   1     7.830954955498    91.17915403    81.03192789
 Ti    58   6   4     5.590431506457    95.42033407   328.26221263
 Ti    59  58   6     5.591052502096   179.91385226   161.89019548
 Ti    59  58   6     6.744678531538    65.71672443    81.18328037
 Ti    59  58   6     6.751344704181    65.66011414   269.60211374
 Ti    61  59  58     5.563775540714    65.74515470   179.94944626
 Ti    62  59  58     5.567861943033    65.62194085   180.23520196
 O     59  58   6     3.507761302114    89.94096937   175.26670302
 O     58   6   4     3.660847348491    73.33682344   108.61704295
 O     59  58   6     3.664555676873    40.32689504    69.92573673
 O     59  58   6     3.664879535734   139.69804658    70.06279924
 O     60  59  65     3.659004803430   139.70011162   255.15364163
 O     59  58   6     3.663712779646    40.30465099   280.47393023
 O     59  58   6     3.663510438497   139.71319980   280.40609100
 O     60  59  65     3.660730009904   139.58055512   105.01774477
 O     61  59  58     3.517581717940   111.48032198   319.67770296
 O     62  59  58     3.517536216900   111.43641566    40.36885419
 O     61  59  58     3.514890980086    73.18793329   219.69303085
 O     62  59  58     3.513141194501    73.10319858   140.58863294
 O     63  61  59     3.519889915898   142.56005014    93.67614218
 O     64  62  59     3.518203029384   142.51517050   266.03277687
 Ti>   47  15  11     8.210435009722   100.51654844   290.71397564
 Ti>   66  58   6     3.662644157727    99.39311548   101.50689996
 Ti>   74  62  59     8.697127894996   109.31019776   209.30458767
 Ti>   79  47  15     5.588803040927    90.72249932    14.32169651
 Ti>   81  74  62     5.588560045518    50.03150638   323.88411382
 Ti>   82  79  47     5.586909183771   179.67531463   141.02644045
 Ti>   83  81  74     5.586673684321   179.91608797    63.36458535
 Ti>   84  82  79     5.586195152817   179.80553743   161.48872781
 Ti>   85  83  81     5.586136511778   179.97552139    15.17853630
 Ti>   86  84  82     5.585588537308   179.84955328   186.98582751
 Ti>   69  60  59     3.663252848594    99.35730952   180.06140074
 Ti>   87  85  83     5.588232853403   179.88665208    95.22418844
 Ti>   79  47  15     6.596468876438   146.25529509   232.74025687
 Ti>   80  66  58     6.601551974836   118.22706647    96.30501174
 Ti>   81  74  62     6.598221314446   122.75578674    60.70966540
 Ti>   91  79  47     5.589212761124    64.96481446   136.83688833
 Ti>   92  80  66     5.585723239177    64.93358449   314.92847147
 Ti>   93  81  74     5.586875503125    64.93670627   302.95852314
 Ti>   94  91  79     5.583597394767   179.96928437    68.83654789
 Ti>   65  59  58     3.734761667522   131.58794450     0.00000000
 Ti>   96  93  81     5.584736082290   179.92454212   264.67267207
 Ti>   97  94  91     5.588003420882   179.93831227   134.26813314
 Ti>   65  59  58     3.730975098406   131.51267188   179.94931958
 Ti>   99  96  93     5.589564508931   179.97289432   344.54394355
 Ti>  100  97  94     5.587024371904   179.98477779    75.35691322
 Ti>  101  65  59     5.590268637092   138.51000771     0.04409169
 Ti>  102  99  96     5.589653132393   179.93010879   266.60965912
 Ti>  103 100  97     5.587281631365   179.96787107    85.44805221
 Ti>  104 101  65     5.589090289042   179.93831524     1.18945391
 Ti>  105 102  99     5.588266093566   179.93378411   185.67402536
 Ti>   91  79  47     6.738137377775    80.00957158    69.24459102
 Ti>   92  80  66     6.739532479888    79.95609400   247.30766104
 Ti>  109  91  79     5.590937786860   114.43671919    67.09362348
 Ti>  110  92  80     5.589507740268   114.42968844    67.08809767
 Ti>  111 109  91     5.586516339807   179.75677818    83.81675956
 Ti>  112 110  92     5.587432486964   179.84455390   105.42913629
 Ti>  113 111 109     5.587095589316   179.43502915   182.69426050
 Ti>  114 112 110     5.587473086296   179.64373920   163.25634155
 Ti>  115 113 111     5.588233481182   179.82888803    13.82001020
 Ti>  116 114 112     5.588755192458   179.74510130     8.05021151
 Ti>   80  66  58     6.766614187626    74.90306101   170.39780344
 Ti>   81  74  62     6.762195936429    66.73476293   125.73595730
 Ti>   73  61  59     3.509132016082   105.92588098   102.37953089
 Ti>   74  62  59     3.509543410963   105.54039867   257.61557576
 Ti>   77  63  61     3.508886811884   105.17927745   180.02494490
 Ti>   78  64  62     3.505161378503   105.36887420   180.13977396
 Ti>  123  77  63     5.603751604946   142.37764304   179.93435834
 Ti>  124  78  64     5.604760993958   142.37506384   180.10685369
 O >   79  47  15     3.505894418065   157.55760908   282.38259130
 O >   80  66  58     3.506553890178    99.52875980    78.57991026
 O >   81  74  62     3.505936212695   107.11954227    38.97869460
 O >   82  79  47     3.510008491770    89.90363404   202.24518604
 O >   58   6   4     3.506842092083   172.84556366   106.72596330
 O >   83  81  74     3.507539552528    89.92357695   112.45980156
 O >   84  82 130     3.507830159409    90.07192200     0.17229483
 O >   85  83 132     3.507163394192    89.98887784     0.03035738
 O >   86  84 133     3.508471351040    90.03349314   359.90685329
 O >   60  59  65     3.506545575443    89.95885253     0.08483607
 O >   87  85 134     3.507500774743    90.05098832     0.07623653
 O >   88  86 135     3.506869475410    90.08577557     0.10571922
 O >   89  69  60     3.507084332693    99.58025698   281.43375926
 O >   90  87 137     3.505931386019    90.07621352   359.94910360
 O >   91  79  47     3.639315895148    90.09087232    46.78793695
 O >   92  80  66     3.636711040920    89.93449416   224.82890818
 O >   94  91  79     3.638925910412    89.92290125   269.82542643
 O >   95  92  80     3.639112212706    89.98389457   269.99613187
 O >   97  94 143     3.641934098933    89.98040963     0.00000000
 O >   98  65  59     3.639497765293    89.89430170    89.91700832
 O >  100  97 145     3.642632164966    89.93823539     0.08704238
 O >  101  65  59     3.638862515040    89.98063056   270.07777958
 O >  103 100 147     3.641601755706    89.95114933     0.05274447
 O >  104 101  65     3.638218127974    89.98271398   270.04968179
 O >  106 103 149     3.641406584835    90.01773543     0.11636244
 O >  107 104 150     3.639119899041    90.00727115     0.03792676
 O >   92  80  66     3.638487152954    89.79422976    44.98930857
 O >   93  81  74     3.642930353619    90.03271653    32.88796106
 O >   95  92  80     3.633984193077    90.07692051    89.98122612
 O >   96  93  81     3.635345056576    90.09285041    90.17265122
 O >   98  65  59     3.634002175691    89.95516977   269.90826671
 O >   99  96 156     3.635287466557    90.04356499     0.00000000
 O >  101  65  59     3.634868876201    90.01992119    90.03842868
 O >  102  99 158     3.637081210453    89.96238453     0.00000000
 O >  104 101  65     3.635149072315    89.98767607    89.93913509
 O >  105 102 160     3.636351411066    89.96854446   359.94432064
 O >  107 104 161     3.635727353856    89.99438577   359.91416337
 O >  108 105 162     3.637232265874    89.96609012   359.91590631
 O >  109  91  79     3.695746606751    89.98091612   337.02617984
 O >  110  92  80     3.701846431362    90.03410558   337.03356232
 O >  111 109  91     3.699440704970    89.91151534   269.89094648
 O >  112 110  92     3.714324463793    89.90710256   269.91789623
 O >  113 111 167     3.757505166184    89.63867967   359.96726057
 O >  114 112 168     3.750379257590    89.74284971     0.00000000
 O >  115 113 145     3.734464658751    90.08300381   271.32061292
 O >  116 114 146     3.729897312830    90.05563403   271.14587811
 O >  117 115 171     3.700131591656    90.33716267     0.07514984
 O >  118 116 172     3.697121152754    90.34621750   359.94860191
 O >   80  66  58     3.662608530035    99.49191975   180.10341500
 O >   81  74  62     3.662910560886    89.94562970   138.89918218
 O >   81  74  62     3.665100816628    11.13400610   350.72883443
 O >   83  81  74     3.665349625669   139.59800657     7.70124659
 O >   87  85 134     3.664090817610    40.35033196   255.12275912
 O >   87  85 134     3.664267717355   139.77410352   255.28947812
 O >   89  69  60     3.664318982696    99.39111214   179.98521377
 O >   90  87 137     3.663893321969   139.55841901   255.00679580
 O >   79  47  15     3.665636847662    66.11161476   228.72038160
 O >   80  66  58     3.664069388369   160.91575250   258.87678186
 O >   82  79  47     3.662116644197    40.33328508   306.91519424
 O >   58   6   4     3.659632285793    79.12430168   188.62231784
 O >   82  79  47     3.661692669448   139.94516029   307.06669538
 O >   84  82 130     3.665735501953   139.43837089   105.04551148
 O >   86  84 133     3.662603056626   139.76437759   104.80826254
 O >   88  86 135     3.664957575767   139.51818382   105.18442521
 O >   89  69  60     3.664110819031   160.88669341   101.58440705
 O >  121  73  61     3.512716279993   105.50752415   180.15967914
 O >  120  81  74     3.510495555503    73.24117188    23.52142013
 O >  125 123  77     3.509533449537    37.18151438     0.00000000
 O >  126 124  78     3.508204547125    37.21101677   359.95789339

---------------------
BASIS SET INFORMATION
---------------------
There are 7 groups of distinct atoms

 Group   1 Type Fe  : 17s11p7d1f contracted to 10s6p4d1f pattern {8111111111/611111/4111/1}
 Group   2 Type N   : 11s6p2d1f contracted to 6s3p2d1f pattern {611111/411/11/1}
 Group   3 Type C   : 11s6p2d1f contracted to 6s3p2d1f pattern {611111/411/11/1}
 Group   4 Type H   : 5s1p contracted to 3s1p pattern {311/1}
 Group   5 Type Ti  : 17s11p7d1f contracted to 10s6p4d1f pattern {8111111111/611111/4111/1}
 Group   6 Type O   : 11s6p2d1f contracted to 6s3p2d1f pattern {611111/411/11/1}
 Group   7 Type Q,> :  contracted to  pattern {}

Atom   0Fe   basis set group =>   1
Atom   1N    basis set group =>   2
Atom   2N    basis set group =>   2
Atom   3N    basis set group =>   2
Atom   4N    basis set group =>   2
Atom   5N    basis set group =>   2
Atom   6N    basis set group =>   2
Atom   7N    basis set group =>   2
Atom   8N    basis set group =>   2
Atom   9C    basis set group =>   3
Atom  10C    basis set group =>   3
Atom  11C    basis set group =>   3
Atom  12C    basis set group =>   3
Atom  13C    basis set group =>   3
Atom  14C    basis set group =>   3
Atom  15C    basis set group =>   3
Atom  16C    basis set group =>   3
Atom  17C    basis set group =>   3
Atom  18C    basis set group =>   3
Atom  19C    basis set group =>   3
Atom  20C    basis set group =>   3
Atom  21C    basis set group =>   3
Atom  22C    basis set group =>   3
Atom  23C    basis set group =>   3
Atom  24C    basis set group =>   3
Atom  25C    basis set group =>   3
Atom  26C    basis set group =>   3
Atom  27C    basis set group =>   3
Atom  28C    basis set group =>   3
Atom  29C    basis set group =>   3
Atom  30C    basis set group =>   3
Atom  31C    basis set group =>   3
Atom  32C    basis set group =>   3
Atom  33C    basis set group =>   3
Atom  34C    basis set group =>   3
Atom  35C    basis set group =>   3
Atom  36C    basis set group =>   3
Atom  37C    basis set group =>   3
Atom  38C    basis set group =>   3
Atom  39C    basis set group =>   3
Atom  40C    basis set group =>   3
Atom  41H    basis set group =>   4
Atom  42H    basis set group =>   4
Atom  43H    basis set group =>   4
Atom  44H    basis set group =>   4
Atom  45H    basis set group =>   4
Atom  46H    basis set group =>   4
Atom  47H    basis set group =>   4
Atom  48H    basis set group =>   4
Atom  49H    basis set group =>   4
Atom  50H    basis set group =>   4
Atom  51H    basis set group =>   4
Atom  52H    basis set group =>   4
Atom  53H    basis set group =>   4
Atom  54H    basis set group =>   4
Atom  55H    basis set group =>   4
Atom  56H    basis set group =>   4
Atom  57Ti   basis set group =>   5
Atom  58Ti   basis set group =>   5
Atom  59Ti   basis set group =>   5
Atom  60Ti   basis set group =>   5
Atom  61Ti   basis set group =>   5
Atom  62Ti   basis set group =>   5
Atom  63Ti   basis set group =>   5
Atom  64O    basis set group =>   6
Atom  65O    basis set group =>   6
Atom  66O    basis set group =>   6
Atom  67O    basis set group =>   6
Atom  68O    basis set group =>   6
Atom  69O    basis set group =>   6
Atom  70O    basis set group =>   6
Atom  71O    basis set group =>   6
Atom  72O    basis set group =>   6
Atom  73O    basis set group =>   6
Atom  74O    basis set group =>   6
Atom  75O    basis set group =>   6
Atom  76O    basis set group =>   6
Atom  77O    basis set group =>   6
Atom  78Ti>  basis set group =>   7
Atom  79Ti>  basis set group =>   7
Atom  80Ti>  basis set group =>   7
Atom  81Ti>  basis set group =>   7
Atom  82Ti>  basis set group =>   7
Atom  83Ti>  basis set group =>   7
Atom  84Ti>  basis set group =>   7
Atom  85Ti>  basis set group =>   7
Atom  86Ti>  basis set group =>   7
Atom  87Ti>  basis set group =>   7
Atom  88Ti>  basis set group =>   7
Atom  89Ti>  basis set group =>   7
Atom  90Ti>  basis set group =>   7
Atom  91Ti>  basis set group =>   7
Atom  92Ti>  basis set group =>   7
Atom  93Ti>  basis set group =>   7
Atom  94Ti>  basis set group =>   7
Atom  95Ti>  basis set group =>   7
Atom  96Ti>  basis set group =>   7
Atom  97Ti>  basis set group =>   7
Atom  98Ti>  basis set group =>   7
Atom  99Ti>  basis set group =>   7
Atom 100Ti>  basis set group =>   7
Atom 101Ti>  basis set group =>   7
Atom 102Ti>  basis set group =>   7
Atom 103Ti>  basis set group =>   7
Atom 104Ti>  basis set group =>   7
Atom 105Ti>  basis set group =>   7
Atom 106Ti>  basis set group =>   7
Atom 107Ti>  basis set group =>   7
Atom 108Ti>  basis set group =>   7
Atom 109Ti>  basis set group =>   7
Atom 110Ti>  basis set group =>   7
Atom 111Ti>  basis set group =>   7
Atom 112Ti>  basis set group =>   7
Atom 113Ti>  basis set group =>   7
Atom 114Ti>  basis set group =>   7
Atom 115Ti>  basis set group =>   7
Atom 116Ti>  basis set group =>   7
Atom 117Ti>  basis set group =>   7
Atom 118Ti>  basis set group =>   7
Atom 119Ti>  basis set group =>   7
Atom 120Ti>  basis set group =>   7
Atom 121Ti>  basis set group =>   7
Atom 122Ti>  basis set group =>   7
Atom 123Ti>  basis set group =>   7
Atom 124Ti>  basis set group =>   7
Atom 125Ti>  basis set group =>   7
Atom 126O >  basis set group =>   7
Atom 127O >  basis set group =>   7
Atom 128O >  basis set group =>   7
Atom 129O >  basis set group =>   7
Atom 130O >  basis set group =>   7
Atom 131O >  basis set group =>   7
Atom 132O >  basis set group =>   7
Atom 133O >  basis set group =>   7
Atom 134O >  basis set group =>   7
Atom 135O >  basis set group =>   7
Atom 136O >  basis set group =>   7
Atom 137O >  basis set group =>   7
Atom 138O >  basis set group =>   7
Atom 139O >  basis set group =>   7
Atom 140O >  basis set group =>   7
Atom 141O >  basis set group =>   7
Atom 142O >  basis set group =>   7
Atom 143O >  basis set group =>   7
Atom 144O >  basis set group =>   7
Atom 145O >  basis set group =>   7
Atom 146O >  basis set group =>   7
Atom 147O >  basis set group =>   7
Atom 148O >  basis set group =>   7
Atom 149O >  basis set group =>   7
Atom 150O >  basis set group =>   7
Atom 151O >  basis set group =>   7
Atom 152O >  basis set group =>   7
Atom 153O >  basis set group =>   7
Atom 154O >  basis set group =>   7
Atom 155O >  basis set group =>   7
Atom 156O >  basis set group =>   7
Atom 157O >  basis set group =>   7
Atom 158O >  basis set group =>   7
Atom 159O >  basis set group =>   7
Atom 160O >  basis set group =>   7
Atom 161O >  basis set group =>   7
Atom 162O >  basis set group =>   7
Atom 163O >  basis set group =>   7
Atom 164O >  basis set group =>   7
Atom 165O >  basis set group =>   7
Atom 166O >  basis set group =>   7
Atom 167O >  basis set group =>   7
Atom 168O >  basis set group =>   7
Atom 169O >  basis set group =>   7
Atom 170O >  basis set group =>   7
Atom 171O >  basis set group =>   7
Atom 172O >  basis set group =>   7
Atom 173O >  basis set group =>   7
Atom 174O >  basis set group =>   7
Atom 175O >  basis set group =>   7
Atom 176O >  basis set group =>   7
Atom 177O >  basis set group =>   7
Atom 178O >  basis set group =>   7
Atom 179O >  basis set group =>   7
Atom 180O >  basis set group =>   7
Atom 181O >  basis set group =>   7
Atom 182O >  basis set group =>   7
Atom 183O >  basis set group =>   7
Atom 184O >  basis set group =>   7
Atom 185O >  basis set group =>   7
Atom 186O >  basis set group =>   7
Atom 187O >  basis set group =>   7
Atom 188O >  basis set group =>   7
Atom 189O >  basis set group =>   7
Atom 190O >  basis set group =>   7
Atom 191O >  basis set group =>   7
Atom 192O >  basis set group =>   7
Atom 193O >  basis set group =>   7
Atom 194O >  basis set group =>   7
---------------------------------
AUXILIARY/J BASIS SET INFORMATION
---------------------------------
There are 7 groups of distinct atoms

 Group   1 Type Fe  : 19s5p5d3f3g contracted to 19s5p5d3f3g pattern {1111111111111111111/11111/11111/111/111}
 Group   2 Type N   : 12s5p4d2f1g contracted to 12s5p4d2f1g pattern {111111111111/11111/1111/11/1}
 Group   3 Type C   : 12s5p4d2f1g contracted to 12s5p4d2f1g pattern {111111111111/11111/1111/11/1}
 Group   4 Type H   : 5s2p1d contracted to 5s2p1d pattern {11111/11/1}
 Group   5 Type Ti  : 19s5p5d3f3g contracted to 19s5p5d3f3g pattern {1111111111111111111/11111/11111/111/111}
 Group   6 Type O   : 12s5p4d2f1g contracted to 12s5p4d2f1g pattern {111111111111/11111/1111/11/1}
 Group   7 Type Q,> :  contracted to  pattern {}

Atom   0Fe   basis set group =>   1
Atom   1N    basis set group =>   2
Atom   2N    basis set group =>   2
Atom   3N    basis set group =>   2
Atom   4N    basis set group =>   2
Atom   5N    basis set group =>   2
Atom   6N    basis set group =>   2
Atom   7N    basis set group =>   2
Atom   8N    basis set group =>   2
Atom   9C    basis set group =>   3
Atom  10C    basis set group =>   3
Atom  11C    basis set group =>   3
Atom  12C    basis set group =>   3
Atom  13C    basis set group =>   3
Atom  14C    basis set group =>   3
Atom  15C    basis set group =>   3
Atom  16C    basis set group =>   3
Atom  17C    basis set group =>   3
Atom  18C    basis set group =>   3
Atom  19C    basis set group =>   3
Atom  20C    basis set group =>   3
Atom  21C    basis set group =>   3
Atom  22C    basis set group =>   3
Atom  23C    basis set group =>   3
Atom  24C    basis set group =>   3
Atom  25C    basis set group =>   3
Atom  26C    basis set group =>   3
Atom  27C    basis set group =>   3
Atom  28C    basis set group =>   3
Atom  29C    basis set group =>   3
Atom  30C    basis set group =>   3
Atom  31C    basis set group =>   3
Atom  32C    basis set group =>   3
Atom  33C    basis set group =>   3
Atom  34C    basis set group =>   3
Atom  35C    basis set group =>   3
Atom  36C    basis set group =>   3
Atom  37C    basis set group =>   3
Atom  38C    basis set group =>   3
Atom  39C    basis set group =>   3
Atom  40C    basis set group =>   3
Atom  41H    basis set group =>   4
Atom  42H    basis set group =>   4
Atom  43H    basis set group =>   4
Atom  44H    basis set group =>   4
Atom  45H    basis set group =>   4
Atom  46H    basis set group =>   4
[...]
 636 3140604.8      3.2   0.00002   0.00008   0.00021   0.00002109007605   0.99999   0.00000   0.00001
 637 3140638.2      3.2   0.00000   0.00000   0.00001   0.00000101611477   0.99999   0.00000   0.00001
 638 3140645.2      3.2   0.00019   0.00021   0.00043   0.00018841083547   1.00000   0.00000   0.00000
 639 3140665.1      3.2   0.00015   0.00010   0.00026   0.00014921401025   1.00000   0.00000   0.00000
 640 3140673.7      3.2   0.00005   0.00005   0.00010   0.00004638773422   1.00000   0.00000   0.00000
 641 3140747.3      3.2   0.00001   0.00001   0.00011   0.00000565669601   0.99998   0.00000   0.00002
 642 3140798.0      3.2   0.00018   0.00018   0.00038   0.00017845722783   1.00000   0.00000   0.00000
 643 3140857.7      3.2   0.00007   0.00006   0.00014   0.00007080156009   1.00000   0.00000   0.00000
 644 3140921.1      3.2   0.00004   0.00002   0.00004   0.00004074677880   1.00000   0.00000   0.00000
 645 3140925.6      3.2   0.00011   0.00030   0.00050   0.00011328716940   0.99999   0.00000   0.00000
 646 3140937.3      3.2   0.00000   0.00001   0.00008   0.00000010439381   0.99913   0.00008   0.00079
 647 3140981.0      3.2   0.00051   0.00039   0.00063   0.00050916649786   1.00000   0.00000   0.00000
 648 3141136.6      3.2   0.00003   0.00000   0.00003   0.00003014384365   1.00000   0.00000   0.00000
 649 3141212.1      3.2   0.00000   0.00001   0.00006   0.00000330069675   0.99998   0.00000   0.00002
 650 3141240.3      3.2   0.00002   0.00002   0.00005   0.00002228025278   1.00000   0.00000   0.00000
 651 3141266.5      3.2   0.00001   0.00002   0.00003   0.00000640717182   0.99999   0.00000   0.00001
 652 3141292.8      3.2   0.00008   0.00007   0.00013   0.00007632273979   1.00000   0.00000   0.00000
 653 3141321.3      3.2   0.00000   0.00001   0.00004   0.00000263714701   0.99998   0.00000   0.00001
 654 3141406.1      3.2   0.00000   0.00001   0.00001   0.00000212940265   0.99999   0.00000   0.00001
 655 3141433.0      3.2   0.00296   0.00029   0.00059   0.00296313078736   1.00000   0.00000   0.00000
 656 3141436.5      3.2   0.00001   0.00130   0.00093   0.00000575688311   0.99961   0.00023   0.00016
 657 3141597.8      3.2   0.00019   0.00013   0.00023   0.00019367207739   1.00000   0.00000   0.00000
 658 3141639.7      3.2   0.00023   0.00002   0.00004   0.00023284216767   1.00000   0.00000   0.00000
 659 3141767.7      3.2   0.00300   0.00039   0.00115   0.00299883924756   1.00000   0.00000   0.00000
 660 3141832.2      3.2   0.00033   0.00017   0.00048   0.00033168789738   1.00000   0.00000   0.00000
 661 3141886.2      3.2   0.00000   0.00001   0.00012   0.00000001850937   0.99269   0.00078   0.00653
 662 3141890.2      3.2   0.00001   0.00001   0.00003   0.00000501832774   0.99999   0.00000   0.00001
 663 3141931.4      3.2   0.00001   0.00002   0.00004   0.00000931109288   0.99999   0.00000   0.00000
 664 3141983.5      3.2   0.00002   0.00002   0.00003   0.00001667840480   1.00000   0.00000   0.00000
 665 3142058.5      3.2   0.00000   0.00000   0.00001   0.00000022303953   0.99992   0.00001   0.00007
 666 3142071.3      3.2   0.00001   0.00003   0.00007   0.00000855431380   0.99999   0.00000   0.00001
 667 3142115.4      3.2   0.00001   0.00001   0.00004   0.00001109971372   1.00000   0.00000   0.00000
 668 3142131.3      3.2   0.00013   0.00002   0.00013   0.00013304194460   1.00000   0.00000   0.00000
 669 3142174.0      3.2   0.00000   0.00000   0.00004   0.00000072374215   0.99995   0.00000   0.00005
 670 3142221.4      3.2   0.00000   0.00000   0.00001   0.00000057816765   0.99997   0.00001   0.00002
 671 3142257.4      3.2   0.00168   0.00001   0.00015   0.00168121192511   1.00000   0.00000   0.00000
 672 3142326.4      3.2   0.00000   0.00000   0.00001   0.00000290795317   1.00000   0.00000   0.00000
 673 3142361.0      3.2   0.00000   0.00001   0.00004   0.00000028244725   0.99985   0.00002   0.00013
 674 3142460.7      3.2   0.00001   0.00000   0.00001   0.00001483670063   1.00000   0.00000   0.00000
 675 3142492.3      3.2   0.00007   0.00003   0.00010   0.00006635979690   1.00000   0.00000   0.00000
 676 3142526.9      3.2   0.00017   0.00002   0.00006   0.00017400740029   1.00000   0.00000   0.00000
 677 3142532.2      3.2   0.00000   0.00000   0.00002   0.00000010588746   0.99975   0.00002   0.00022
 678 3142630.1      3.2   0.00000   0.00000   0.00001   0.00000398936967   1.00000   0.00000   0.00000
 679 3142642.3      3.2   0.00000   0.00001   0.00001   0.00000135366551   0.99999   0.00000   0.00001
 680 3142648.0      3.2   0.00003   0.00001   0.00052   0.00002693437166   0.99998   0.00000   0.00002
 681 3142653.0      3.2   0.00001   0.00000   0.00003   0.00000585846008   0.99999   0.00000   0.00001
 682 3142682.1      3.2   0.00001   0.00000   0.00002   0.00000896005874   1.00000   0.00000   0.00000
 683 3142718.6      3.2   0.00002   0.00001   0.00002   0.00002107013299   1.00000   0.00000   0.00000
 684 3142760.7      3.2   0.00008   0.00002   0.00005   0.00007734247478   1.00000   0.00000   0.00000
 685 3142781.3      3.2   0.00001   0.00000   0.00001   0.00000813334912   1.00000   0.00000   0.00000
 686 3142791.8      3.2   0.00001   0.00000   0.00002   0.00000717351545   1.00000   0.00000   0.00000
 687 3142950.3      3.2   0.00009   0.00001   0.00006   0.00009281455903   1.00000   0.00000   0.00000
 688 3142994.5      3.2   0.00010   0.00001   0.00001   0.00010462164459   1.00000   0.00000   0.00000
 689 3143098.7      3.2   0.00017   0.00001   0.00009   0.00016663959171   1.00000   0.00000   0.00000
 690 3143209.5      3.2   0.00004   0.00003   0.00018   0.00004134890838   0.99999   0.00000   0.00000
 691 3143217.9      3.2   0.00007   0.00001   0.00003   0.00007195570923   1.00000   0.00000   0.00000
 692 3143270.5      3.2   0.00000   0.00002   0.00005   0.00000360489641   0.99998   0.00001   0.00001
 693 3143285.0      3.2   0.00005   0.00003   0.00041   0.00005271541443   0.99999   0.00000   0.00001
 694 3143285.3      3.2   0.00002   0.00006   0.00010   0.00001904516182   0.99999   0.00000   0.00001
 695 3143290.2      3.2   0.00001   0.00001   0.00002   0.00000879037079   1.00000   0.00000   0.00000
 696 3143342.5      3.2   0.00000   0.00000   0.00002   0.00000379889027   0.99999   0.00000   0.00001
 697 3143374.1      3.2   0.00001   0.00000   0.00003   0.00000901513287   1.00000   0.00000   0.00000
 698 3143405.2      3.2   0.00057   0.00003   0.00009   0.00056670670709   1.00000   0.00000   0.00000
 699 3143411.9      3.2   0.00014   0.00006   0.00005   0.00013871411669   1.00000   0.00000   0.00000
 700 3143432.3      3.2   0.00000   0.00005   0.00025   0.00000283664648   0.99989   0.00002   0.00009
 701 3143539.1      3.2   0.00065   0.00007   0.00015   0.00065391680378   1.00000   0.00000   0.00000
 702 3143572.8      3.2   0.00005   0.00005   0.00040   0.00005037966200   0.99999   0.00000   0.00001
 703 3143581.5      3.2   0.00000   0.00001   0.00001   0.00000068602695   0.99997   0.00001   0.00002
 704 3143587.5      3.2   0.00000   0.00001   0.00009   0.00000463168484   0.99998   0.00000   0.00002
 705 3143726.9      3.2   0.00000   0.00000   0.00003   0.00000071533262   0.99996   0.00000   0.00004
 706 3143730.3      3.2   0.00003   0.00001   0.00051   0.00003185288898   0.99998   0.00000   0.00002
 707 3143801.2      3.2   0.00000   0.00000   0.00001   0.00000318719907   1.00000   0.00000   0.00000
 708 3143809.5      3.2   0.00000   0.00000   0.00011   0.00000490082248   0.99998   0.00000   0.00002
 709 3143840.0      3.2   0.00000   0.00000   0.00002   0.00000141782304   0.99999   0.00000   0.00001
 710 3144069.5      3.2   0.00000   0.00000   0.00004   0.00000422761539   0.99999   0.00000   0.00001
 711 3144127.4      3.2   0.00002   0.00000   0.00005   0.00002171704354   1.00000   0.00000   0.00000
 712 3144282.4      3.2   0.00009   0.00002   0.00004   0.00009000426236   1.00000   0.00000   0.00000
 713 3144527.0      3.2   0.00001   0.00000   0.00002   0.00001356296189   1.00000   0.00000   0.00000
 714 3144645.1      3.2   0.00013   0.00167   0.00275   0.00012582331386   0.99996   0.00001   0.00002
 715 3144671.1      3.2   0.00000   0.00001   0.00004   0.00000256805465   0.99998   0.00000   0.00001
 716 3144766.7      3.2   0.00001   0.00001   0.00013   0.00000791431399   0.99998   0.00000   0.00002
 717 3144904.2      3.2   0.00007   0.00001   0.00002   0.00007161038055   1.00000   0.00000   0.00000
 718 3144931.4      3.2   0.00002   0.00002   0.00026   0.00001748084534   0.99998   0.00000   0.00001
 719 3145205.8      3.2   0.00000   0.00168   0.00331   0.00000481165748   0.99896   0.00035   0.00069
 720 3145213.3      3.2   0.00002   0.00000   0.00010   0.00001830690535   0.99999   0.00000   0.00001
 721 3145328.7      3.2   0.00009   0.00197   0.00321   0.00009295335389   0.99994   0.00002   0.00003
 722 3145348.6      3.2   0.00000   0.00000   0.00004   0.00000018253920   0.99974   0.00001   0.00024
 723 3145392.7      3.2   0.00002   0.00001   0.00011   0.00001613951758   0.99999   0.00000   0.00001
 724 3145398.3      3.2   0.00001   0.00001   0.00017   0.00000635916404   0.99997   0.00000   0.00003
 725 3145413.3      3.2   0.00002   0.00007   0.00014   0.00002146397105   0.99999   0.00000   0.00001
 726 3145567.9      3.2   0.00001   0.00010   0.00136   0.00000889956821   0.99984   0.00001   0.00015
 727 3145630.9      3.2   0.00309   0.00012   0.00019   0.00309447738129   1.00000   0.00000   0.00000
 728 3145659.0      3.2   0.00026   0.00128   0.00204   0.00026104672165   0.99999   0.00000   0.00001
 729 3145792.3      3.2   0.00000   0.00000   0.00000   0.00000006963181   0.99990   0.00003   0.00006
 730 3145927.4      3.2   0.00000   0.00000   0.00001   0.00000050585091   0.99998   0.00000   0.00002
 731 3146078.6      3.2   0.00000   0.00000   0.00000   0.00000157845954   1.00000   0.00000   0.00000
 732 3146112.7      3.2   0.00000   0.00023   0.00256   0.00000130424939   0.99786   0.00017   0.00196
 733 3146175.9      3.2   0.00001   0.00008   0.00019   0.00000904436773   0.99997   0.00001   0.00002
 734 3146243.0      3.2   0.00051   0.00017   0.00028   0.00051009703917   1.00000   0.00000   0.00000
 735 3146283.3      3.2   0.00307   0.00011   0.00053   0.00306700758815   1.00000   0.00000   0.00000
 736 3146337.2      3.2   0.00001   0.00037   0.00181   0.00001246881890   0.99982   0.00003   0.00015
 737 3146395.7      3.2   0.00000   0.00000   0.00001   0.00000055904650   0.99999   0.00000   0.00001
 738 3146422.3      3.2   0.00021   0.00142   0.00230   0.00020506730426   0.99998   0.00001   0.00001
 739 3146519.0      3.2   0.00088   0.00012   0.00020   0.00088371540276   1.00000   0.00000   0.00000
 740 3146625.2      3.2   0.00026   0.00039   0.00064   0.00026389841555   1.00000   0.00000   0.00000
 741 3146666.0      3.2   0.00051   0.00038   0.00062   0.00051402809081   1.00000   0.00000   0.00000
 742 3146759.8      3.2   0.00009   0.00021   0.00038   0.00009241974001   0.99999   0.00000   0.00000
 743 3146778.0      3.2   0.00001   0.00000   0.00001   0.00001176549800   1.00000   0.00000   0.00000
 744 3146912.8      3.2   0.00000   0.00000   0.00000   0.00000052006373   1.00000   0.00000   0.00000
 745 3146972.4      3.2   0.00002   0.00000   0.00001   0.00001662127823   1.00000   0.00000   0.00000
 746 3147066.5      3.2   0.00032   0.00140   0.00249   0.00032295978381   0.99999   0.00000   0.00001
 747 3147139.5      3.2   0.00008   0.00004   0.00013   0.00007550750833   1.00000   0.00000   0.00000
 748 3147181.3      3.2   0.00096   0.00039   0.00081   0.00095600420886   1.00000   0.00000   0.00000
 749 3147182.0      3.2   0.00004   0.00042   0.00064   0.00003543738201   0.99997   0.00001   0.00002
 750 3147244.3      3.2   0.00000   0.00000   0.00001   0.00000471856109   1.00000   0.00000   0.00000
 751 3147309.3      3.2   0.00000   0.00000   0.00000   0.00000116663340   1.00000   0.00000   0.00000
 752 3147421.4      3.2   0.00002   0.00012   0.00134   0.00001927748263   0.99992   0.00001   0.00007
 753 3147439.7      3.2   0.00218   0.00077   0.00128   0.00218488870099   1.00000   0.00000   0.00000
 754 3147575.2      3.2   0.00000   0.00004   0.00055   0.00000276614941   0.99979   0.00002   0.00020
 755 3147610.9      3.2   0.00010   0.00023   0.00015   0.00009939156187   1.00000   0.00000   0.00000
 756 3147634.8      3.2   0.00304   0.00052   0.00085   0.00304296797890   1.00000   0.00000   0.00000
 757 3147681.8      3.2   0.00003   0.00000   0.00001   0.00002788214217   1.00000   0.00000   0.00000
 758 3147725.3      3.2   0.00000   0.00000   0.00001   0.00000041114885   0.99997   0.00000   0.00002
 759 3147773.1      3.2   0.00038   0.00234   0.00400   0.00038264417148   0.99998   0.00001   0.00001
 760 3147910.1      3.2   0.00002   0.00001   0.00039   0.00001704167703   0.99998   0.00000   0.00002
 761 3147965.2      3.2   0.00106   0.00033   0.00058   0.00106352465516   1.00000   0.00000   0.00000
 762 3147973.1      3.2   0.00000   0.00002   0.00004   0.00000454022183   0.99999   0.00001   0.00001
 763 3147987.8      3.2   0.00000   0.00000   0.00001   0.00000010053766   0.99992   0.00000   0.00007
 764 3148033.5      3.2   0.00000   0.00002   0.00008   0.00000108639105   0.99991   0.00002   0.00007
 765 3148038.6      3.2   0.00002   0.00000   0.00001   0.00002144523966   1.00000   0.00000   0.00000
 766 3148051.2      3.2   0.00031   0.00007   0.00036   0.00031205103065   1.00000   0.00000   0.00000
 767 3148054.3      3.2   0.00002   0.00003   0.00017   0.00001563349306   0.99999   0.00000   0.00001
 768 3148187.6      3.2   0.00000   0.00000   0.00026   0.00000425949417   0.99994   0.00000   0.00006
 769 3148207.3      3.2   0.00000   0.00001   0.00017   0.00000148620411   0.99988   0.00001   0.00011
 770 3148278.7      3.2   0.00028   0.00012   0.00023   0.00028098633705   1.00000   0.00000   0.00000
 771 3148297.2      3.2   0.00000   0.00000   0.00001   0.00000030965274   0.99998   0.00000   0.00002
 772 3148333.0      3.2   0.00000   0.00000   0.00029   0.00000379048771   0.99992   0.00000   0.00008
 773 3148361.7      3.2   0.00008   0.00003   0.00007   0.00008240286199   1.00000   0.00000   0.00000
 774 3148367.0      3.2   0.00002   0.00002   0.00012   0.00002189265749   0.99999   0.00000   0.00001
 775 3148431.7      3.2   0.00001   0.00005   0.00016   0.00001182181867   0.99998   0.00000   0.00001
 776 3148488.0      3.2   0.00003   0.00003   0.00017   0.00002924670343   0.99999   0.00000   0.00001
 777 3148558.5      3.2   0.00018   0.00017   0.00030   0.00017853093090   1.00000   0.00000   0.00000
 778 3148601.4      3.2   0.00001   0.00005   0.00018   0.00000745265884   0.99997   0.00001   0.00002
 779 3148637.0      3.2   0.00111   0.00033   0.00096   0.00111428143786   1.00000   0.00000   0.00000
 780 3148703.1      3.2   0.00003   0.00001   0.00002   0.00003267513979   1.00000   0.00000   0.00000
 781 3148759.5      3.2   0.00012   0.00004   0.00013   0.00012293958722   1.00000   0.00000   0.00000
 782 3148804.1      3.2   0.00091   0.00021   0.00038   0.00091472221635   1.00000   0.00000   0.00000
 783 3148834.2      3.2   0.00009   0.00022   0.00036   0.00009166164497   0.99999   0.00000   0.00000
 784 3148870.0      3.2   0.00010   0.00010   0.00028   0.00009638635788   1.00000   0.00000   0.00000
 785 3148946.8      3.2   0.00000   0.00000   0.00002   0.00000050643203   0.99995   0.00000   0.00004
 786 3148976.1      3.2   0.00005   0.00000   0.00009   0.00004766178593   1.00000   0.00000   0.00000
 787 3149042.4      3.2   0.00007   0.00048   0.00079   0.00006688227168   0.99998   0.00001   0.00001
 788 3149087.7      3.2   0.00006   0.00001   0.00016   0.00005653728635   1.00000   0.00000   0.00000
 789 3149107.3      3.2   0.00036   0.00098   0.00171   0.00036409097775   0.99999   0.00000   0.00000
 790 3149148.4      3.2   0.00001   0.00017   0.00052   0.00000688641738   0.99990   0.00002   0.00007
 791 3149162.6      3.2   0.00000   0.00002   0.00004   0.00000069576297   0.99992   0.00002   0.00005
 792 3149250.9      3.2   0.00035   0.00011   0.00021   0.00035212893803   1.00000   0.00000   0.00000
 793 3149445.1      3.2   0.00004   0.00022   0.00051   0.00003765340009   0.99998   0.00001   0.00001
 794 3149449.1      3.2   0.00017   0.00002   0.00007   0.00016540387930   1.00000   0.00000   0.00000
 795 3149471.5      3.2   0.00001   0.00002   0.00009   0.00000889325428   0.99999   0.00000   0.00001
 796 3149528.3      3.2   0.00021   0.00019   0.00031   0.00021196121219   1.00000   0.00000   0.00000
 797 3149634.7      3.2   0.00074   0.00252   0.00435   0.00074462855961   0.99999   0.00000   0.00001
 798 3149718.3      3.2   0.00006   0.00027   0.00045   0.00006279556456   0.99999   0.00000   0.00001
 799 3149767.8      3.2   0.00001   0.00000   0.00054   0.00000516801023   0.99989   0.00000   0.00011
 800 3149813.1      3.2   0.00000   0.00000   0.00014   0.00000105176652   0.99986   0.00000   0.00013

Total run time:    99822.606 sec

           *** ORCA-CIS/TD-DFT FINISHED WITHOUT ERROR ***

Maximum memory used throughout the entire CIS-calculation: 20965.4 MB

-----------------------
CIS/TD-DFT TOTAL ENERGY
-----------------------

    E(SCF)  = -10064.447766912 Eh
    DE(CIS) =     14.148199247 Eh (Root  1)
    ----------------------------- ---------
    E(tot)  = -10050.299567665 Eh


-------------------------   --------------------
FINAL SINGLE POINT ENERGY    -10050.299567664870
-------------------------   --------------------


                            ***************************************
                            *     ORCA property calculations      *
                            ***************************************

                                    ---------------------
                                    Active property flags
                                    ---------------------
   (+) Dipole Moment


------------------------------------------------------------------------------
                       ORCA ELECTRIC PROPERTIES CALCULATION
------------------------------------------------------------------------------

Dipole Moment Calculation                       ... on
Quadrupole Moment Calculation                   ... off
Polarizability Calculation                      ... off
GBWName                                         ... QMMM_TDDFT_800.gbw
Electron density                                ... QMMM_TDDFT_800.scfp
The origin for moment calculation is the CENTER OF MASS  = (56.021567, 54.986843 18.789182)

-------------
DIPOLE MOMENT
-------------
                                X             Y             Z
Electronic contribution:    -11.93874       5.04136     -78.42753
Nuclear contribution   :      6.00913      -0.10430    -181.68102
                        -----------------------------------------
Total Dipole Moment    :     -5.92961       4.93706    -260.10854
                        -----------------------------------------
Magnitude (a.u.)       :    260.22296
Magnitude (Debye)      :    661.43420



--------------------
Rotational spectrum 
--------------------
 
Rotational constants in cm-1:     0.001298     0.001259     0.000975 
Rotational constants in MHz :    38.917021    37.758274    29.228090 

 Dipole components along the rotational axes: 
x,y,z [a.u.] :    16.181550    -2.920194  -259.702943 
x,y,z [Debye]:    41.130232    -7.422543  -660.112421 

 

Timings for individual modules:

Sum of individual times         ...   103817.786 sec (=1730.296 min)
GTO integral calculation        ...       57.255 sec (=   0.954 min)   0.1 %
Relativistic integrals          ...       65.897 sec (=   1.098 min)   0.1 %
SCF iterations                  ...     3870.520 sec (=  64.509 min)   3.7 %
CIS module                      ...    99824.114 sec (=1663.735 min)  96.2 %
                             ****ORCA TERMINATED NORMALLY****
TOTAL RUN TIME: 1 days 4 hours 50 minutes 22 seconds 152 msec
