Starting Job at 15h51m36s_06_10_23
Starting Job from host liverpool

                                 *****************
                                 * O   R   C   A *
                                 *****************

                                            #,                                       
                                            ###                                      
                                            ####                                     
                                            #####                                    
                                            ######                                   
                                           ########,                                 
                                     ,,################,,,,,                         
                               ,,#################################,,                 
                          ,,##########################################,,             
                       ,#########################################, ''#####,          
                    ,#############################################,,   '####,        
                  ,##################################################,,,,####,       
                ,###########''''           ''''###############################       
              ,#####''   ,,,,##########,,,,          '''####'''          '####       
            ,##' ,,,,###########################,,,                        '##       
           ' ,,###''''                  '''############,,,                           
         ,,##''                                '''############,,,,        ,,,,,,###''
      ,#''                                            '''#######################'''  
     '                                                          ''''####''''         
             ,#######,   #######,   ,#######,      ##                                
            ,#'     '#,  ##    ##  ,#'     '#,    #''#        ######   ,####,        
            ##       ##  ##   ,#'  ##            #'  '#       #        #'  '#        
            ##       ##  #######   ##           ,######,      #####,   #    #        
            '#,     ,#'  ##    ##  '#,     ,#' ,#      #,         ##   #,  ,#        
             '#######'   ##     ##  '#######'  #'      '#     #####' # '####'        



                  #######################################################
                  #                        -***-                        #
                  #          Department of theory and spectroscopy      #
                  #    Directorship and core code : Frank Neese         #
                  #        Max Planck Institute fuer Kohlenforschung    #
                  #                Kaiser Wilhelm Platz 1               #
                  #                 D-45470 Muelheim/Ruhr               #
                  #                      Germany                        #
                  #                                                     #
                  #                  All rights reserved                #
                  #                        -***-                        #
                  #######################################################


                         Program Version 5.0.3 -  RELEASE  -


 With contributions from (in alphabetic order):
   Daniel Aravena         : Magnetic Suceptibility
   Michael Atanasov       : Ab Initio Ligand Field Theory (pilot matlab implementation)
   Alexander A. Auer      : GIAO ZORA, VPT2 properties, NMR spectrum
   Ute Becker             : Parallelization
   Giovanni Bistoni       : ED, misc. LED, open-shell LED, HFLD
   Martin Brehm           : Molecular dynamics
   Dmytro Bykov           : SCF Hessian
   Vijay G. Chilkuri      : MRCI spin determinant printing, contributions to CSF-ICE
   Dipayan Datta          : RHF DLPNO-CCSD density
   Achintya Kumar Dutta   : EOM-CC, STEOM-CC
   Dmitry Ganyushin       : Spin-Orbit,Spin-Spin,Magnetic field MRCI
   Miquel Garcia          : C-PCM and meta-GGA Hessian, CC/C-PCM, Gaussian charge scheme
   Yang Guo               : DLPNO-NEVPT2, F12-NEVPT2, CIM, IAO-localization
   Andreas Hansen         : Spin unrestricted coupled pair/coupled cluster methods
   Benjamin Helmich-Paris : MC-RPA, TRAH-SCF, COSX integrals
   Lee Huntington         : MR-EOM, pCC
   Robert Izsak           : Overlap fitted RIJCOSX, COSX-SCS-MP3, EOM
   Marcus Kettner         : VPT2
   Christian Kollmar      : KDIIS, OOCD, Brueckner-CCSD(T), CCSD density, CASPT2, CASPT2-K
   Simone Kossmann        : Meta GGA functionals, TD-DFT gradient, OOMP2, MP2 Hessian
   Martin Krupicka        : Initial AUTO-CI
   Lucas Lang             : DCDCAS
   Marvin Lechner         : AUTO-CI (C++ implementation), FIC-MRCC
   Dagmar Lenk            : GEPOL surface, SMD
   Dimitrios Liakos       : Extrapolation schemes; Compound Job, initial MDCI parallelization
   Dimitrios Manganas     : Further ROCIS development; embedding schemes
   Dimitrios Pantazis     : SARC Basis sets
   Anastasios Papadopoulos: AUTO-CI, single reference methods and gradients
   Taras Petrenko         : DFT Hessian,TD-DFT gradient, ASA, ECA, R-Raman, ABS, FL, XAS/XES, NRVS
   Peter Pinski           : DLPNO-MP2, DLPNO-MP2 Gradient
   Christoph Reimann      : Effective Core Potentials
   Marius Retegan         : Local ZFS, SOC
   Christoph Riplinger    : Optimizer, TS searches, QM/MM, DLPNO-CCSD(T), (RO)-DLPNO pert. Triples
   Tobias Risthaus        : Range-separated hybrids, TD-DFT gradient, RPA, STAB
   Michael Roemelt        : Original ROCIS implementation
   Masaaki Saitow         : Open-shell DLPNO-CCSD energy and density
   Barbara Sandhoefer     : DKH picture change effects
   Avijit Sen             : IP-ROCIS
   Kantharuban Sivalingam : CASSCF convergence, NEVPT2, FIC-MRCI
   Bernardo de Souza      : ESD, SOC TD-DFT
   Georgi Stoychev        : AutoAux, RI-MP2 NMR, DLPNO-MP2 response
   Willem Van den Heuvel  : Paramagnetic NMR
   Boris Wezisla          : Elementary symmetry handling
   Frank Wennmohs         : Technical directorship


 We gratefully acknowledge several colleagues who have allowed us to
 interface, adapt or use parts of their codes:
   Stefan Grimme, W. Hujo, H. Kruse, P. Pracht,  : VdW corrections, initial TS optimization,
                  C. Bannwarth, S. Ehlert          DFT functionals, gCP, sTDA/sTD-DF
   Ed Valeev, F. Pavosevic, A. Kumar             : LibInt (2-el integral package), F12 methods
   Garnet Chan, S. Sharma, J. Yang, R. Olivares  : DMRG
   Ulf Ekstrom                                   : XCFun DFT Library
   Mihaly Kallay                                 : mrcc  (arbitrary order and MRCC methods)
   Jiri Pittner, Ondrej Demel                    : Mk-CCSD
   Frank Weinhold                                : gennbo (NPA and NBO analysis)
   Christopher J. Cramer and Donald G. Truhlar   : smd solvation model
   Lars Goerigk                                  : TD-DFT with DH, B97 family of functionals
   V. Asgeirsson, H. Jonsson                     : NEB implementation
   FAccTs GmbH                                   : IRC, NEB, NEB-TS, DLPNO-Multilevel, CI-OPT
                                                   MM, QMMM, 2- and 3-layer-ONIOM, Crystal-QMMM,
                                                   LR-CPCM, SF, NACMEs, symmetry and pop. for TD-DFT,
                                                   nearIR, NL-DFT gradient (VV10), updates on ESD,
                                                   ML-optimized integration grids
   S Lehtola, MJT Oliveira, MAL Marques          : LibXC Library
   Liviu Ungur et al                             : ANISO software


 Your calculation uses the libint2 library for the computation of 2-el integrals
 For citations please refer to: http://libint.valeyev.net

 Your ORCA version has been built with support for libXC version: 5.1.0
 For citations please refer to: https://tddft.org/programs/libxc/

 This ORCA versions uses:
   CBLAS   interface :  Fast vector & matrix operations
   LAPACKE interface :  Fast linear algebra routines
   SCALAPACK package :  Parallel linear algebra routines
   Shared memory     :  Shared parallel matrices
   BLAS/LAPACK       :  OpenBLAS 0.3.15  USE64BITINT DYNAMIC_ARCH NO_AFFINITY Zen SINGLE_THREADED
        Core in use  :  Zen
   Copyright (c) 2011-2014, The OpenBLAS Project


Your calculation utilizes the atom-pairwise dispersion correction
with the Becke-Johnson damping scheme (D3BJ)
Cite in your paper:
S.Grimme, S.Ehrlich, L.Goerigk, J Comput Chem, (2011), 32, 1456–1465 
S.Grimme, J.Antony, S.Ehrlich and H.Krieg, J.Chem.Phys., 132, (2010), 154104 
   

================================================================================

----- Orbital basis set information -----
Your calculation utilizes the basis: ZORA-def2-TZVPP 
   Exponents from def2-TZVPP [F. Weigend and R. Ahlrichs, Phys. Chem. Chem. Phys. 7, 3297 (2005)],
   recontracted for ZORA by D. A. Pantazis.

----- AuxJ basis set information -----
Your calculation utilizes the auxiliary basis: SARC/J 
   decontracted def2/J up to Kr:
   F. Weigend, Phys. Chem. Chem. Phys. 8, 1057 (2006)
   and SARC auxiliary basis sets beyond Kr:
   D. A. Pantazis and F. Neese, J. Chem. Theory Comput. 5, 2229 (2009).
   D. A. Pantazis, X. Y. Chen, C. R. Landis and F. Neese, J. Chem. Theory Comput. 4, 908 (2008).
   D. A. Pantazis and F. Neese, Theor. Chem. Acc. 131, 1292 (2012).
   D. A. Pantazis and F. Neese, J. Chem. Theory Comput. 7, 677 (2011).

================================================================================
                                        WARNINGS
                       Please study these warnings very carefully!
================================================================================


WARNING: your system is open-shell and RHF/RKS was chosen
  ===> : WILL SWITCH to UHF/UKS


INFO   : the flag for use of the SHARK integral package has been found!

================================================================================
                                       INPUT FILE
================================================================================
NAME = Qhigh_freq.inp
|  1> ! TPSSh zora-def2-tzvpp sarc/j rijcosx
|  2> ! D3BJ tightSCF
|  3> ! moread
|  4> 
|  5> %moinp "Qhigh.gbw" 
|  6> 
|  7> %scf
|  8> maxiter 900
|  9> end
| 10> 
| 11> %pal
| 12> nprocs 12
| 13> end
| 14> 
| 15> %maxcore 12000
| 16> 
| 17> * xyz 0 6
| 18>   Co  22.72201563199910      9.93352422704559     10.66969336282387
| 19>   O   23.46838458281820     11.80301288976346     10.21644817645174
| 20>   O   20.96049084496198     11.02393720826071     10.57978743580365
| 21>   C   22.54983559558619     12.63359573703904      9.96284069539407
| 22>   C   21.16074086086332     12.20525940395977     10.17111557950799
| 23>   C   20.11606235484682     13.13183413947022      9.91124730865243
| 24>   C   20.40764566504242     14.38949209981664      9.46370326961818
| 25>   C   21.74921565558135     14.80212087099233      9.25952235397056
| 26>   C   22.79332601531139     13.95526034739376      9.50155945621555
| 27>   O   22.49787096839304      9.23523637248268      8.72751636960391
| 28>   O   21.92016140116794      8.06784584072362     11.03595258229683
| 29>   C   21.95672273931012      8.09155434427439      8.69385503834859
| 30>   C   21.62836920053369      7.44922082208110      9.97272639496268
| 31>   C   21.01512988204854      6.16751032676752      9.95408061499442
| 32>   C   20.74719633139234      5.54973425855119      8.76555782391064
| 33>   C   21.07134072852974      6.16677845431350      7.53030167530338
| 34>   C   21.66070221558361      7.39888194367062      7.48904525167843
| 35>   N   23.11900285169972     10.27430219946153     12.77367563498280
| 36>   C   24.27512843998021      9.80860680534757     13.24439944474799
| 37>   C   24.60624091958092      9.94092329176851     14.58736748469180
| 38>   C   23.71482485440386     10.56633712819112     15.44177971408803
| 39>   C   22.51858265671170     11.04401327456588     14.93721463567766
| 40>   C   22.26270463274028     10.87299026814362     13.58695394172002
| 41>   N   24.69517601735430      9.09270830496759     11.00667292658778
| 42>   C   25.16097448940544      9.15351586817741     12.25329966330483
| 43>   C   26.40471298475239      8.62645482919213     12.57951852985327
| 44>   C   27.16335879268982      8.02938545570418     11.58770441102793
| 45>   C   26.66640794821508      7.97675888074178     10.29769097021807
| 46>   C   25.41899814964860      8.52667381799460     10.05344994206051
| 47>   H   19.09338645551202     12.81011406592393     10.06039604921722
| 48>   H   19.60636907629577     15.08649899731094      9.25559100540652
| 49>   H   21.94194509153192     15.80543200319909      8.90228957932714
| 50>   H   23.81859773700051     14.26492741990612      9.34479189796495
| 51>   H   20.76852604560972      5.70163732397333     10.89947997716622
| 52>   H   20.27822022778914      4.57434570530598      8.75894781111760
| 53>   H   20.84194490083697      5.64891036591083      6.60805414267578
| 54>   H   21.90178812887779      7.87644693855779      6.54797185462368
| 55>   H   25.54120141076547      9.56286150959725     14.97349861269795
| 56>   H   23.95523692487690     10.67655126907430     16.49057495530122
| 57>   H   21.79453229333550     11.53738628043656     15.56916588781256
| 58>   H   21.34034136737047     11.22138034595091     13.14155203104011
| 59>   H   26.78625443871929      8.67599302232928     13.58842695439353
| 60>   H   28.13266181919304      7.61141745636426     11.82395021890258
| 61>   H   27.22616351213611      7.52073466331725      9.49408561717477
| 62>   H   24.98574715899512      8.51708322197922      9.06211271667961
| 63> *
| 64> 
| 65>                          ****END OF INPUT****
================================================================================

                       ****************************
                       * Single Point Calculation *
                       ****************************

---------------------------------
CARTESIAN COORDINATES (ANGSTROEM)
---------------------------------
  Co    22.722016    9.933524   10.669693
  O     23.468385   11.803013   10.216448
  O     20.960491   11.023937   10.579787
  C     22.549836   12.633596    9.962841
  C     21.160741   12.205259   10.171116
  C     20.116062   13.131834    9.911247
  C     20.407646   14.389492    9.463703
  C     21.749216   14.802121    9.259522
  C     22.793326   13.955260    9.501559
  O     22.497871    9.235236    8.727516
  O     21.920161    8.067846   11.035953
  C     21.956723    8.091554    8.693855
  C     21.628369    7.449221    9.972726
  C     21.015130    6.167510    9.954081
  C     20.747196    5.549734    8.765558
  C     21.071341    6.166778    7.530302
  C     21.660702    7.398882    7.489045
  N     23.119003   10.274302   12.773676
  C     24.275128    9.808607   13.244399
  C     24.606241    9.940923   14.587367
  C     23.714825   10.566337   15.441780
  C     22.518583   11.044013   14.937215
  C     22.262705   10.872990   13.586954
  N     24.695176    9.092708   11.006673
  C     25.160974    9.153516   12.253300
  C     26.404713    8.626455   12.579519
  C     27.163359    8.029385   11.587704
  C     26.666408    7.976759   10.297691
  C     25.418998    8.526674   10.053450
  H     19.093386   12.810114   10.060396
  H     19.606369   15.086499    9.255591
  H     21.941945   15.805432    8.902290
  H     23.818598   14.264927    9.344792
  H     20.768526    5.701637   10.899480
  H     20.278220    4.574346    8.758948
  H     20.841945    5.648910    6.608054
  H     21.901788    7.876447    6.547972
  H     25.541201    9.562862   14.973499
  H     23.955237   10.676551   16.490575
  H     21.794532   11.537386   15.569166
  H     21.340341   11.221380   13.141552
  H     26.786254    8.675993   13.588427
  H     28.132662    7.611417   11.823950
  H     27.226164    7.520735    9.494086
  H     24.985747    8.517083    9.062113

----------------------------
CARTESIAN COORDINATES (A.U.)
----------------------------
  NO LB      ZA    FRAG     MASS         X           Y           Z
   0 Co   27.0000    0    58.930   42.938387   18.771640   20.162798
   1 O     8.0000    0    15.999   44.348820   22.304462   19.306289
   2 O     8.0000    0    15.999   39.609587   20.832222   19.992901
   3 C     6.0000    0    12.011   42.613014   23.874036   18.827040
   4 C     6.0000    0    12.011   39.988005   23.064598   19.220623
   5 C     6.0000    0    12.011   38.013849   24.815570   18.729543
   6 C     6.0000    0    12.011   38.564861   27.192199   17.883807
   7 C     6.0000    0    12.011   41.100061   27.971955   17.497961
   8 C     6.0000    0    12.011   43.073144   26.371620   17.955345
   9 O     8.0000    0    15.999   42.514815   17.452068   16.492616
  10 O     8.0000    0    15.999   41.423102   15.246019   20.854928
  11 C     6.0000    0    12.011   41.492193   15.290822   16.429005
  12 C     6.0000    0    12.011   40.871695   14.076987   18.845722
  13 C     6.0000    0    12.011   39.712840   11.654905   18.810486
  14 C     6.0000    0    12.011   39.206519   10.487478   16.564504
  15 C     6.0000    0    12.011   39.819063   11.653522   14.230208
  16 C     6.0000    0    12.011   40.932795   13.981861   14.152245
  17 N     7.0000    0    14.007   43.688584   19.415617   24.138749
  18 C     6.0000    0    12.011   45.873345   18.535581   25.028288
  19 C     6.0000    0    12.011   46.499057   18.785623   27.566130
  20 C     6.0000    0    12.011   44.814524   19.967483   29.180735
  21 C     6.0000    0    12.011   42.553954   20.870161   28.227245
  22 C     6.0000    0    12.011   42.070415   20.546974   25.675622
  23 N     7.0000    0    14.007   46.667120   17.182729   20.799597
  24 C     6.0000    0    12.011   47.547351   17.297638   23.155381
  25 C     6.0000    0    12.011   49.897676   16.301637   23.771845
  26 C     6.0000    0    12.011   51.331309   15.173340   21.897588
  27 C     6.0000    0    12.011   50.392208   15.073890   19.459816
  28 C     6.0000    0    12.011   48.034945   16.113078   18.998267
  29 H     1.0000    0     1.008   36.081271   24.207607   19.011393
  30 H     1.0000    0     1.008   37.050668   28.509351   17.490532
  31 H     1.0000    0     1.008   41.464267   29.867938   16.822889
  32 H     1.0000    0     1.008   45.010627   26.956806   17.659097
  33 H     1.0000    0     1.008   39.246826   10.774533   20.597032
  34 H     1.0000    0     1.008   38.320283    8.644261   16.552013
  35 H     1.0000    0     1.008   39.385568   10.674894   12.487413
  36 H     1.0000    0     1.008   41.388381   14.884328   12.373874
  37 H     1.0000    0     1.008   48.265876   18.071189   28.295812
  38 H     1.0000    0     1.008   45.268837   20.175758   31.162670
  39 H     1.0000    0     1.008   41.185697   21.802500   29.421460
  40 H     1.0000    0     1.008   40.327401   21.205336   24.833934
  41 H     1.0000    0     1.008   50.618685   16.395251   25.678406
  42 H     1.0000    0     1.008   53.163026   14.383494   22.344028
  43 H     1.0000    0     1.008   51.449993   14.212129   17.941222
  44 H     1.0000    0     1.008   47.216219   16.094955   17.124911

--------------------------------
INTERNAL COORDINATES (ANGSTROEM)
--------------------------------
 Co     0   0   0     0.000000000000     0.00000000     0.00000000
 O      1   0   0     2.063367555659     0.00000000     0.00000000
 O      1   2   0     2.073656943822    79.70717594     0.00000000
 C      2   1   3     1.264087363508   112.11987190   352.74860742
 C      3   1   2     1.265952165387   111.73488347     6.85238047
 C      5   3   1     1.420361024394   123.46730961   174.67031152
 C      6   5   3     1.366389416997   120.22601930   180.39070244
 C      7   6   5     1.418366098238   121.11528799   359.47588786
 C      8   7   6     1.365987243201   121.13872070     0.10314024
 O      1   2   3     2.076029438868    97.94989114    91.16902325
 O      1   2   3     2.063461137153   177.13282850    58.89523390
 C     10   1   2     1.265694699644   112.02275393   184.21079628
 C     11   1   2     1.264234759637   112.50969361    29.39481785
 C     13  11   1     1.420982730593   123.50500800   182.50464687
 C     14  13  11     1.366024188275   120.26381751   181.00555555
 C     15  14  13     1.418333840248   121.07629914     0.00000000
 C     16  15  14     1.366428945609   121.14123718   359.94307771
 N      1   2   3     2.168056706050    90.25923571   263.33707228
 C     18   1   2     1.332321087822   116.53988582   264.97276157
 C     19  18   1     1.389498572521   120.99591925   181.91236351
 C     20  19  18     1.384118970965   119.08999192     0.05711370
 C     21  20  19     1.383385634849   119.19482480   359.95805580
 C     18   1   2     1.324045183362   123.28031823    87.03105191
 N      1   2   3     2.171149130656    93.22371054   188.18848301
 C     24   1   2     1.332195179772   116.44411900    90.81268813
 C     25  24   1     1.389639353399   121.01734651   179.04352307
 C     26  25  24     1.384099181764   119.07558223   359.91054111
 C     27  26  25     1.383424871717   119.19017139     0.21536000
 C     24   1   2     1.323989266525   123.41268795   269.96687480
 H      6   5   3     1.082411727401   118.41181308   359.37177849
 H      7   6   5     1.082207697877   119.85417144   179.22241933
 H      8   7   6     1.082309160440   119.05373141   179.88361109
 H      9   8   7     1.082428688835   121.39782315   179.84327064
 H     14  13  11     1.082419078210   118.36429610     1.08094132
 H     15  14  13     1.082296219998   119.85962537   180.11669870
 H     16  15  14     1.082289385602   119.04700490   180.16736192
 H     17  16  15     1.082501676938   121.33939539   180.52725128
 H     20  19  18     1.079897717022   121.23603430   179.85509497
 H     21  20  19     1.081626820336   120.09619226   179.88985248
 H     22  21  20     1.080290811172   121.59442927   179.94350790
 H     23  18   1     1.081902260676   116.36539658   358.28109049
 H     26  25  24     1.079779663998   121.21122086   179.86131934
 H     27  26  25     1.081692048320   120.08917525   180.16403210
 H     28  27  26     1.080308262330   121.57207464   179.94836632
 H     29  24   1     1.081918617485   116.39465595     1.32104230

---------------------------
INTERNAL COORDINATES (A.U.)
---------------------------
 Co     0   0   0     0.000000000000     0.00000000     0.00000000
 O      1   0   0     3.899199593814     0.00000000     0.00000000
 O      1   2   0     3.918643719528    79.70717594     0.00000000
 C      2   1   3     2.388778926382   112.11987190   352.74860742
 C      3   1   2     2.392302891226   111.73488347     6.85238047
 C      5   3   1     2.684093347400   123.46730961   174.67031152
 C      6   5   3     2.582101790413   120.22601930   180.39070244
 C      7   6   5     2.680323483309   121.11528799   359.47588786
 C      8   7   6     2.581341792080   121.13872070     0.10314024
 O      1   2   3     3.923127085418    97.94989114    91.16902325
 O      1   2   3     3.899376437208   177.13282850    58.89523390
 C     10   1   2     2.391816351484   112.02275393   184.21079628
 C     11   1   2     2.389057464698   112.50969361    29.39481785
 C     13  11   1     2.685268201853   123.50500800   182.50464687
 C     14  13  11     2.581411608153   120.26381751   181.00555555
 C     15  14  13     2.680262524541   121.07629914     0.00000000
 C     16  15  14     2.582176488664   121.14123718   359.94307771
 N      1   2   3     4.097033417246    90.25923571   263.33707228
 C     18   1   2     2.517721978432   116.53988582   264.97276157
 C     19  18   1     2.625771765538   120.99591925   181.91236351
 C     20  19  18     2.615605791890   119.08999192     0.05711370
 C     21  20  19     2.614219987465   119.19482480   359.95805580
 C     18   1   2     2.502082785492   123.28031823    87.03105191
 N      1   2   3     4.102877252842    93.22371054   188.18848301
 C     24   1   2     2.517484046698   116.44411900    90.81268813
 C     25  24   1     2.626037802844   121.01734651   179.04352307
 C     26  25  24     2.615568395718   119.07558223   359.91054111
 C     27  26  25     2.614294134401   119.19017139     0.21536000
 C     24   1   2     2.501977117983   123.41268795   269.96687480
 H      6   5   3     2.045461728932   118.41181308   359.37177849
 H      7   6   5     2.045076169008   119.85417144   179.22241933
 H      8   7   6     2.045267905465   119.05373141   179.88361109
 H      9   8   7     2.045493781398   121.39782315   179.84327064
 H     14  13  11     2.045475619949   118.36429610     1.08094132
 H     15  14  13     2.045243451574   119.85962537   180.11669870
 H     16  15  14     2.045230536437   119.04700490   180.16736192
 H     17  16  15     2.045631708924   121.33939539   180.52725128
 H     20  19  18     2.040710937819   121.23603430   179.85509497
 H     21  20  19     2.043978469540   120.09619226   179.88985248
 H     22  21  20     2.041453778106   121.59442927   179.94350790
 H     23  18   1     2.044498976348   116.36539658   358.28109049
 H     26  25  24     2.040487849933   121.21122086   179.86131934
 H     27  26  25     2.044101732565   120.08917525   180.16403210
 H     28  27  26     2.041486756016   121.57207464   179.94836632
 H     29  24   1     2.044529886237   116.39465595     1.32104230

---------------------
BASIS SET INFORMATION
---------------------
There are 5 groups of distinct atoms

 Group   1 Type Co  : 17s12p7d2f1g contracted to 10s7p4d2f1g pattern {8111111111/6111111/4111/11/1}
 Group   2 Type O   : 11s6p2d1f contracted to 6s3p2d1f pattern {611111/411/11/1}
 Group   3 Type C   : 11s6p2d1f contracted to 6s3p2d1f pattern {611111/411/11/1}
 Group   4 Type N   : 11s6p2d1f contracted to 6s3p2d1f pattern {611111/411/11/1}
 Group   5 Type H   : 5s2p1d contracted to 3s2p1d pattern {311/11/1}

Atom   0Co   basis set group =>   1
Atom   1O    basis set group =>   2
Atom   2O    basis set group =>   2
Atom   3C    basis set group =>   3
Atom   4C    basis set group =>   3
Atom   5C    basis set group =>   3
Atom   6C    basis set group =>   3
Atom   7C    basis set group =>   3
Atom   8C    basis set group =>   3
Atom   9O    basis set group =>   2
Atom  10O    basis set group =>   2
Atom  11C    basis set group =>   3
Atom  12C    basis set group =>   3
Atom  13C    basis set group =>   3
Atom  14C    basis set group =>   3
Atom  15C    basis set group =>   3
Atom  16C    basis set group =>   3
Atom  17N    basis set group =>   4
Atom  18C    basis set group =>   3
Atom  19C    basis set group =>   3
Atom  20C    basis set group =>   3
Atom  21C    basis set group =>   3
Atom  22C    basis set group =>   3
Atom  23N    basis set group =>   4
Atom  24C    basis set group =>   3
Atom  25C    basis set group =>   3
Atom  26C    basis set group =>   3
Atom  27C    basis set group =>   3
Atom  28C    basis set group =>   3
Atom  29H    basis set group =>   5
Atom  30H    basis set group =>   5
Atom  31H    basis set group =>   5
Atom  32H    basis set group =>   5
Atom  33H    basis set group =>   5
Atom  34H    basis set group =>   5
Atom  35H    basis set group =>   5
Atom  36H    basis set group =>   5
Atom  37H    basis set group =>   5
Atom  38H    basis set group =>   5
Atom  39H    basis set group =>   5
Atom  40H    basis set group =>   5
Atom  41H    basis set group =>   5
Atom  42H    basis set group =>   5
Atom  43H    basis set group =>   5
Atom  44H    basis set group =>   5
---------------------------------
AUXILIARY/J BASIS SET INFORMATION
---------------------------------
There are 5 groups of distinct atoms

 Group   1 Type Co  : 19s5p5d3f3g contracted to 19s5p5d3f3g pattern {1111111111111111111/11111/11111/111/111}
 Group   2 Type O   : 12s5p4d2f1g contracted to 12s5p4d2f1g pattern {111111111111/11111/1111/11/1}
 Group   3 Type C   : 12s5p4d2f1g contracted to 12s5p4d2f1g pattern {111111111111/11111/1111/11/1}
 Group   4 Type N   : 12s5p4d2f1g contracted to 12s5p4d2f1g pattern {111111111111/11111/1111/11/1}
 Group   5 Type H   : 5s2p1d contracted to 5s2p1d pattern {11111/11/1}

Atom   0Co   basis set group =>   1
Atom   1O    basis set group =>   2
Atom   2O    basis set group =>   2
Atom   3C    basis set group =>   3
Atom   4C    basis set group =>   3
Atom   5C    basis set group =>   3
Atom   6C    basis set group =>   3
Atom   7C    basis set group =>   3
Atom   8C    basis set group =>   3
Atom   9O    basis set group =>   2
Atom  10O    basis set group =>   2
Atom  11C    basis set group =>   3
Atom  12C    basis set group =>   3
Atom  13C    basis set group =>   3
Atom  14C    basis set group =>   3
Atom  15C    basis set group =>   3
Atom  16C    basis set group =>   3
Atom  17N    basis set group =>   4
Atom  18C    basis set group =>   3
Atom  19C    basis set group =>   3
Atom  20C    basis set group =>   3
Atom  21C    basis set group =>   3
Atom  22C    basis set group =>   3
Atom  23N    basis set group =>   4
Atom  24C    basis set group =>   3
Atom  25C    basis set group =>   3
Atom  26C    basis set group =>   3
Atom  27C    basis set group =>   3
Atom  28C    basis set group =>   3
Atom  29H    basis set group =>   5
Atom  30H    basis set group =>   5
Atom  31H    basis set group =>   5
Atom  32H    basis set group =>   5
Atom  33H    basis set group =>   5
Atom  34H    basis set group =>   5
Atom  35H    basis set group =>   5
Atom  36H    basis set group =>   5
Atom  37H    basis set group =>   5
Atom  38H    basis set group =>   5
Atom  39H    basis set group =>   5
Atom  40H    basis set group =>   5
Atom  41H    basis set group =>   5
Atom  42H    basis set group =>   5
Atom  43H    basis set group =>   5
Atom  44H    basis set group =>   5


           ************************************************************
           *        Program running with 12 parallel MPI-processes    *
           *              working on a common directory               *
           ************************************************************
------------------------------------------------------------------------------
                           ORCA GTO INTEGRAL CALCULATION
                           -- RI-GTO INTEGRALS CHOSEN --
------------------------------------------------------------------------------
------------------------------------------------------------------------------
                   ___                                                        
                  /   \      - P O W E R E D   B Y -                         
                 /     \                                                     
                 |  |  |   _    _      __       _____    __    __             
                 |  |  |  | |  | |    /  \     |  _  \  |  |  /  |          
                  \  \/   | |  | |   /    \    | | | |  |  | /  /          
                 / \  \   | |__| |  /  /\  \   | |_| |  |  |/  /          
                |  |  |   |  __  | /  /__\  \  |    /   |      \           
                |  |  |   | |  | | |   __   |  |    \   |  |\   \          
                \     /   | |  | | |  |  |  |  | |\  \  |  | \   \       
                 \___/    |_|  |_| |__|  |__|  |_| \__\ |__|  \__/        
                                                                              
                      - O R C A' S   B I G   F R I E N D -                    
                                      &                                       
                       - I N T E G R A L  F E E D E R -                       
                                                                              
 v1 FN, 2020, v2 2021                                                         
------------------------------------------------------------------------------


Reading SHARK input file Qhigh_freq.SHARKINP.tmp ... ok
----------------------
SHARK INTEGRAL PACKAGE
----------------------

Number of atoms                             ...     45
Number of basis functions                   ...   1194
Number of shells                            ...    456
Maximum angular momentum                    ...      4
Integral batch strategy                     ... SHARK/LIBINT Hybrid
RI-J (if used) integral strategy            ... SPLIT-RIJ (Revised 2003 algorithm where possible)
Printlevel                                  ...      1
Contraction scheme used                     ... SEGMENTED contraction
Coulomb Range Separation                    ... NOT USED
Exchange Range Separation                   ... NOT USED
Finite Nucleus Model                        ... NOT USED
Auxiliary Coulomb fitting basis             ... AVAILABLE
   # of basis functions in Aux-J            ...   2323
   # of shells in Aux-J                     ...    835
   Maximum angular momentum in Aux-J        ...      4
Auxiliary J/K fitting basis                 ... NOT available
Auxiliary Correlation fitting basis         ... NOT available
Auxiliary 'external' fitting basis          ... NOT available
Integral threshold                          ...     2.500000e-11
Primitive cut-off                           ...     2.500000e-12
Primitive pair pre-selection threshold      ...     2.500000e-12

Calculating pre-screening integrals         ... done (  0.2 sec) Dimension = 456
Organizing shell pair data                  ... done (  0.5 sec)
Shell pair information
Total number of shell pairs                 ...    104196
Shell pairs after pre-screening             ...     61277
Total number of primitive shell pairs       ...    265313
Primitive shell pairs kept                  ...    107331
          la=0 lb=0:  14162 shell pairs
          la=1 lb=0:  17607 shell pairs
          la=1 lb=1:   5399 shell pairs
          la=2 lb=0:   9219 shell pairs
          la=2 lb=1:   5875 shell pairs
          la=2 lb=2:   1561 shell pairs
          la=3 lb=0:   3504 shell pairs
          la=3 lb=1:   2285 shell pairs
          la=3 lb=2:   1162 shell pairs
          la=3 lb=3:    229 shell pairs
          la=4 lb=0:    124 shell pairs
          la=4 lb=1:     85 shell pairs
          la=4 lb=2:     48 shell pairs
          la=4 lb=3:     16 shell pairs
          la=4 lb=4:      1 shell pairs

Calculating one electron integrals          ... done (  0.1 sec)
Calculating RI/J V-Matrix + Cholesky decomp.... done (  0.3 sec)
Calculating Nuclear repulsion               ... done (  0.0 sec) ENN=   3291.667063731627 Eh

SHARK setup successfully completed in   2.3 seconds

Maximum memory used throughout the entire GTOINT-calculation: 92.7 MB


           ************************************************************
           *        Program running with 12 parallel MPI-processes    *
           *              working on a common directory               *
           ************************************************************
-------------------------------------------------------------------------------
                                 ORCA SCF
-------------------------------------------------------------------------------

------------
SCF SETTINGS
------------
Hamiltonian:
 Density Functional     Method          .... DFT(GTOs)
 Exchange Functional    Exchange        .... TPSS
 Correlation Functional Correlation     .... TPSS
 LDA part of GGA corr.  LDAOpt          .... PW91-LDA
 Gradients option       PostSCFGGA      .... off
 Hybrid DFT is turned on
   Fraction HF Exchange ScalHFX         ....  0.100000
   Scaling of DF-GGA-X  ScalDFX         ....  0.900000
   Scaling of DF-GGA-C  ScalDFC         ....  1.000000
   Scaling of DF-LDA-C  ScalLDAC        ....  1.000000
   Perturbative correction              ....  0.000000
   Density functional embedding theory  .... OFF
   NL short-range parameter             ....  5.200000
 RI-approximation to the Coulomb term is turned on
   Number of AuxJ basis functions       .... 2323
   RIJ-COSX (HFX calculated with COS-X)).... on


General Settings:
 Integral files         IntName         .... Qhigh_freq
 Hartree-Fock type      HFTyp           .... UHF
 Total Charge           Charge          ....    0
 Multiplicity           Mult            ....    6
 Number of Electrons    NEL             ....  221
 Basis Dimension        Dim             .... 1194
 Nuclear Repulsion      ENuc            ....   3291.6670637316 Eh

Convergence Acceleration:
 DIIS                   CNVDIIS         .... on
   Start iteration      DIISMaxIt       ....    12
   Startup error        DIISStart       ....  0.200000
   # of expansion vecs  DIISMaxEq       ....     5
   Bias factor          DIISBfac        ....   1.050
   Max. coefficient     DIISMaxC        ....  10.000
 Trust-Rad. Augm. Hess. CNVTRAH         .... auto
   Auto Start mean grad. ratio tolernc. ....  1.125000
   Auto Start start iteration           ....     1
   Auto Start num. interpolation iter.  ....    10
   Max. Number of Micro iterations      ....    16
   Max. Number of Macro iterations      .... Maxiter - #DIIS iter
   Number of Davidson start vectors     ....     2
   Converg. threshold I  (grad. norm)   ....   1.000e-05
   Converg. threshold II (energy diff.) ....   1.000e-08
   Grad. Scal. Fac. for Micro threshold ....   0.100
   Minimum threshold for Micro iter.    ....   0.010
   NR start threshold (gradient norm)   ....   0.001
   Initial trust radius                 ....   0.400
   Minimum AH scaling param. (alpha)    ....   1.000
   Maximum AH scaling param. (alpha)    .... 1000.000
   Orbital update algorithm             .... Taylor
   White noise on init. David. guess    .... on
   Maximum white noise                  ....   0.010
   Quad. conv. algorithm                .... NR
 SOSCF                  CNVSOSCF        .... off
 Level Shifting         CNVShift        .... on
   Level shift para.    LevelShift      ....    0.2500
   Turn off err/grad.   ShiftErr        ....    0.0010
 Zerner damping         CNVZerner       .... off
 Static damping         CNVDamp         .... on
   Fraction old density DampFac         ....    0.7000
   Max. Damping (<1)    DampMax         ....    0.9800
   Min. Damping (>=0)   DampMin         ....    0.0000
   Turn off err/grad.   DampErr         ....    0.1000
 Fernandez-Rico         CNVRico         .... off

SCF Procedure:
 Maximum # iterations   MaxIter         ....   900
 SCF integral mode      SCFMode         .... Direct
   Integral package                     .... SHARK and LIBINT hybrid scheme
 Reset frequency        DirectResetFreq ....    20
 Integral Threshold     Thresh          ....  2.500e-11 Eh
 Primitive CutOff       TCut            ....  2.500e-12 Eh

Convergence Tolerance:
 Convergence Check Mode ConvCheckMode   .... Total+1el-Energy
 Convergence forced     ConvForced      .... 0
 Energy Change          TolE            ....  1.000e-08 Eh
 1-El. energy change                    ....  1.000e-05 Eh
 DIIS Error             TolErr          ....  5.000e-07


Diagonalization of the overlap matrix:
Smallest eigenvalue                        ... 9.577e-06
Time for diagonalization                   ...    0.262 sec
Threshold for overlap eigenvalues          ... 1.000e-08
Number of eigenvalues below threshold      ... 0
Time for construction of square roots      ...    0.180 sec
Total time needed                          ...    0.447 sec

---------------------
INITIAL GUESS: MOREAD
---------------------
Guess MOs are being read from file: Qhigh.gbw
Input Geometry matches current geometry (good)
Atom 0: N(Shells)= 24 and 11 - projection required
Input basis set needs projection
NBasis(read)= 483
NBasis(calc)= 1194
Basis set overlap was calculated
Using GuessMode=FMatrix for the initial guess
C*T matrix was formed
Effective Fockian was calculated
Effective Fockian was diagonalized
Initial density was built
C*T matrix was formed
Effective Fockian was calculated
Effective Fockian was diagonalized
Initial density was built
                      ------------------
                      INITIAL GUESS DONE (   1.9 sec)
                      ------------------
-------------------
DFT GRID GENERATION
-------------------

General Integration Accuracy     IntAcc      ... 4.388
Radial Grid Type                 RadialGrid  ... OptM3 with GC (2021)
Angular Grid (max. ang.)         AngularGrid ... 4 (Lebedev-302)
Angular grid pruning method      GridPruning ... 4 (adaptive)
Weight generation scheme         WeightScheme... Becke
Basis function cutoff            BFCut       ... 1.0000e-11
Integration weight cutoff        WCut        ... 1.0000e-14
Angular grids for H and He will be reduced by one unit
Partially contracted basis set               ... off
Rotationally invariant grid construction     ... off

Total number of grid points                  ...   229352
Total number of batches                      ...     3610
Average number of points per batch           ...       63
Average number of grid points per atom       ...     5097
Time for grid setup =    1.785 sec

--------------------
COSX GRID GENERATION
--------------------

GRIDX 1
-------
General Integration Accuracy     IntAcc      ... 3.816
Radial Grid Type                 RadialGrid  ... OptM3 with GC (2021)
Angular Grid (max. ang.)         AngularGrid ... 1 (Lebedev-50)
Angular grid pruning method      GridPruning ... 4 (adaptive)
Weight generation scheme         WeightScheme... Becke
Basis function cutoff            BFCut       ... 1.0000e-11
Integration weight cutoff        WCut        ... 1.0000e-14
Angular grids for H and He will be reduced by one unit
Partially contracted basis set               ... on
Rotationally invariant grid construction     ... off

Total number of grid points                  ...    28900
Total number of batches                      ...      463
Average number of points per batch           ...       62
Average number of grid points per atom       ...      642
UseSFitting                                  ... on

GRIDX 2
-------
General Integration Accuracy     IntAcc      ... 4.020
Radial Grid Type                 RadialGrid  ... OptM3 with GC (2021)
Angular Grid (max. ang.)         AngularGrid ... 2 (Lebedev-110)
Angular grid pruning method      GridPruning ... 4 (adaptive)
Weight generation scheme         WeightScheme... Becke
Basis function cutoff            BFCut       ... 1.0000e-11
Integration weight cutoff        WCut        ... 1.0000e-14
Angular grids for H and He will be reduced by one unit
Partially contracted basis set               ... on
Rotationally invariant grid construction     ... off

Total number of grid points                  ...    63436
Total number of batches                      ...     1016
Average number of points per batch           ...       62
Average number of grid points per atom       ...     1410
UseSFitting                                  ... on

GRIDX 3
-------
General Integration Accuracy     IntAcc      ... 4.338
Radial Grid Type                 RadialGrid  ... OptM3 with GC (2021)
Angular Grid (max. ang.)         AngularGrid ... 3 (Lebedev-194)
Angular grid pruning method      GridPruning ... 4 (adaptive)
Weight generation scheme         WeightScheme... Becke
Basis function cutoff            BFCut       ... 1.0000e-11
Integration weight cutoff        WCut        ... 1.0000e-14
Angular grids for H and He will be reduced by one unit
Partially contracted basis set               ... on
Rotationally invariant grid construction     ... off

Total number of grid points                  ...   138979
Total number of batches                      ...     2192
Average number of points per batch           ...       63
Average number of grid points per atom       ...     3088
UseSFitting                                  ... on

Time for X-Grid setup             =    3.179 sec

--------------
SCF ITERATIONS
--------------
ITER       Energy         Delta-E        Max-DP      RMS-DP      [F,P]     Damp
               ***  Starting incremental Fock matrix formation  ***
  0  -2641.4022408098   0.000000000000 0.21514077  0.00146378  0.8012863 0.7000
  1  -2641.4765888830  -0.074348073224 0.13436857  0.00106618  0.5625889 0.7000
  2  -2641.5298111846  -0.053222301630 0.08884044  0.00074330  0.3949778 0.7000
  3  -2641.5674062239  -0.037595039275 0.05978437  0.00051887  0.2772885 0.7000
                               ***Turning on DIIS***
  4  -2641.5939416680  -0.026535444088 0.04076577  0.00036304  0.1946580 0.7000
  5  -2641.6126506035  -0.018708935527 0.02785217  0.00025506  0.1366469 0.7000
  6  -2641.6258374665  -0.013186863025 0.06377951  0.00059638  0.0957439 0.0000
  7  -2641.6569541442  -0.031116677702 0.00248719  0.00001740  0.0005273 0.0000
               *** Restarting incremental Fock matrix formation ***
                                   *** Resetting DIIS ***
  8  -2641.6570842032  -0.000130059018 0.00247889  0.00001009  0.0022930 0.0000
  9  -2641.6570357600   0.000048443193 0.00102759  0.00000338  0.0042380 0.0000
 10  -2641.6571099798  -0.000074219776 0.00071195  0.00000291  0.0010527 0.0000
 11  -2641.6571224908  -0.000012510981 0.00147856  0.00000346  0.0003583 0.0000
 12  -2641.6571274096  -0.000004918761 0.00021540  0.00000079  0.0010455 0.0000
 13  -2641.6571314026  -0.000003993021 0.00059938  0.00000152  0.0006197 0.0000
 14  -2641.6571360546  -0.000004652025 0.00058344  0.00000107  0.0002226 0.0000
 15  -2641.6571385235  -0.000002468913 0.00063773  0.00000121  0.0002163 0.0000
 16  -2641.6571411157  -0.000002592127 0.00120122  0.00000220  0.0002002 0.0000
 17  -2641.6571456160  -0.000004500365 0.00159422  0.00000286  0.0001738 0.0000
 18  -2641.6571506426  -0.000005026597 0.00043666  0.00000086  0.0001401 0.0000
 19  -2641.6571517844  -0.000001141823 0.00294781  0.00000531  0.0001945 0.0000
 20  -2641.6571578922  -0.000006107717 0.00083008  0.00000153  0.0000888 0.0000
 21  -2641.6571589995  -0.000001107303 0.00064481  0.00000119  0.0000763 0.0000
 22  -2641.6571595395  -0.000000540049 0.00008326  0.00000047  0.0000859 0.0000
 23  -2641.6571596132  -0.000000073697 0.00035129  0.00000075  0.0000576 0.0000
 24  -2641.6571599242  -0.000000311009 0.00030406  0.00000058  0.0000418 0.0000
 25  -2641.6571596753   0.000000248891 0.00018436  0.00000036  0.0000618 0.0000
 26  -2641.6571598626  -0.000000187294 0.00006978  0.00000021  0.0000292 0.0000
 27  -2641.6571598736  -0.000000010989 0.00011138  0.00000079  0.0000275 0.0000
               *** Restarting incremental Fock matrix formation ***
                                   *** Resetting DIIS ***
 28  -2641.6571600709  -0.000000197324 0.00010286  0.00000095  0.0000257 0.0000

 WARNING: the maximum gradient error descreased on average only by a factor   1.1
          during the last 20 iterations

                      *** Initiating the TRAH-SCF procedure ***


TRAH GRIDX
----------

General Integration Accuracy     IntAcc      ... 3.067
Radial Grid Type                 RadialGrid  ... OptM3 with GC (2021)
Angular Grid (max. ang.)         AngularGrid ... 1 (Lebedev-50)
Angular grid pruning method      GridPruning ... 4 (adaptive)
Weight generation scheme         WeightScheme... Becke
Basis function cutoff            BFCut       ... 1.0000e-11
Integration weight cutoff        WCut        ... 1.0000e-14
Angular grids for H and He will be reduced by one unit
Partially contracted basis set               ... on
Rotationally invariant grid construction     ... off

Total number of grid points                  ...    15625
Total number of batches                      ...      270
Average number of points per batch           ...       57
Average number of grid points per atom       ...      347


TRAH GRID
---------

General Integration Accuracy     IntAcc      ... 3.467
Radial Grid Type                 RadialGrid  ... OptM3 with GC (2021)
Angular Grid (max. ang.)         AngularGrid ... 1 (Lebedev-50)
Angular grid pruning method      GridPruning ... 4 (adaptive)
Weight generation scheme         WeightScheme... Becke
Basis function cutoff            BFCut       ... 1.0000e-11
Integration weight cutoff        WCut        ... 1.0000e-14
Angular grids for H and He will be reduced by one unit
Partially contracted basis set               ... off
Rotationally invariant grid construction     ... off

Total number of grid points                  ...    36412
Total number of batches                      ...      591
Average number of points per batch           ...       61
Average number of grid points per atom       ...      809

 --------------------------------------------------------------------------------------------
   Iter.        energy            ||Error||_2        Shift      TRadius  Mac/Mic        Rej.
 --------------------------------------------------------------------------------------------
    0      -2641.657160113854     2.505490e-04                     0.400 (TRAH MAcro)   No
    0     dE    -8.053448e-09     3.278065e-04    -8.0611e-09      0.000 (TRAH MIcro)
    0     dE    -3.305813e-08     1.906267e-04    -3.3058e-08      0.000 (TRAH MIcro)
    0     dE    -1.764863e-07     3.661140e-04    -1.7648e-07      0.003 (TRAH MIcro)
    0     dE    -2.716894e-07     1.174436e-04    -2.7168e-07      0.005 (TRAH MIcro)
    0     dE    -2.737728e-07     4.438378e-05    -2.7377e-07      0.005 (TRAH MIcro)
    0     dE    -2.745795e-07     3.525050e-05    -2.7457e-07      0.005 (TRAH MIcro)
    0     dE    -2.751340e-07     2.284047e-05    -2.7513e-07      0.005 (TRAH MIcro)
    0     dE    -2.752336e-07     1.014059e-05    -2.7523e-07      0.005 (TRAH MIcro)
    0     dE    -2.752760e-07     4.074694e-06    -2.7527e-07      0.005 (TRAH MIcro)
    0     dE    -2.752897e-07     4.541495e-06    -2.7528e-07      0.005 (TRAH MIcro)
    0     dE    -2.753029e-07     4.001994e-06    -2.7530e-07      0.005 (TRAH MIcro)
    0     dE    -2.753200e-07     3.958693e-06    -2.7531e-07      0.005 (TRAH MIcro)
    0     dE    -2.753277e-07     2.502967e-06    -2.7532e-07      0.005 (TRAH MIcro)
    0     dE    -2.753335e-07     3.171040e-06    -2.7533e-07      0.005 (TRAH MIcro)
    1      -2641.657160379280     3.408947e-05                           (NR   MAcro)
    1     dE    -4.431150e-10     2.320117e-05                           (NR   MIcro)
    1     dE    -6.328291e-10     2.201513e-05                           (NR   MIcro)
    1     dE    -8.185350e-10     1.302213e-05                           (NR   MIcro)
    1     dE    -9.465831e-10     1.700922e-05                           (NR   MIcro)
    1     dE    -1.097814e-09     1.423365e-05                           (NR   MIcro)
    1     dE    -1.185582e-09     9.895927e-06                           (NR   MIcro)
    1     dE    -1.222397e-09     5.281347e-06                           (NR   MIcro)
    1     dE    -1.237947e-09     3.586285e-06                           (NR   MIcro)
    1     dE    -1.245504e-09     2.892108e-06                           (NR   MIcro)
    1     dE    -1.249386e-09     1.758043e-06                           (NR   MIcro)
    1     dE    -1.250792e-09     1.013505e-06                           (NR   MIcro)
    1     dE    -1.251223e-09     6.534542e-07                           (NR   MIcro)
    2      -2641.657160380421     1.826830e-06                           (NR   MAcro)

               *****************************************************
               *                     SUCCESS                       *
               *           SCF CONVERGED AFTER  58 CYCLES          *
               *****************************************************

Old exchange energy                            =    -22.416418317 Eh
New exchange energy                            =    -22.416414528 Eh
Exchange energy change after final integration =      0.000003789 Eh
Total energy after final integration           =  -2641.657156592 Eh
Final COS-X integration done in                =    49.951 sec

----------------
TOTAL SCF ENERGY
----------------

Total Energy       :        -2641.65715659 Eh          -71883.14570 eV

Components:
Nuclear Repulsion  :         3291.66706373 Eh           89570.81450 eV
Electronic Energy  :        -5933.32422032 Eh         -161453.96020 eV
One Electron Energy:       -10183.88578200 Eh         -277117.62052 eV
Two Electron Energy:         4250.56156168 Eh          115663.66032 eV
Max COSX asymmetry :            0.00000037 Eh               0.00001 eV

Virial components:
Potential Energy   :        -5279.50644854 Eh         -143662.67413 eV
Kinetic Energy     :         2637.84929195 Eh           71779.52843 eV
Virial Ratio       :            2.00144355


DFT components:
N(Alpha)           :      113.000044818447 electrons
N(Beta)            :      108.000037011237 electrons
N(Total)           :      221.000081829683 electrons
E(X)               :     -203.283246092142 Eh       
E(C)               :       -7.788009826648 Eh       
E(XC)              :     -211.071255918791 Eh       
DFET-embed. en.    :        0.000000000000 Eh       

---------------
SCF CONVERGENCE
---------------

  Last Energy change         ...   -1.1410e-09  Tolerance :   1.0000e-08
  Last Orbital Gradient      ...    1.8268e-06  Tolerance :   1.0000e-05
  Last Orbital Rotation      ...    2.6924e-04

             **** THE GBW FILE WAS UPDATED (Qhigh_freq.gbw) ****
             **** DENSITY Qhigh_freq.scfp WAS UPDATED ****
             **** ENERGY FILE WAS UPDATED (Qhigh_freq.en.tmp) ****
----------------------
UHF SPIN CONTAMINATION
----------------------

Warning: in a DFT calculation there is little theoretical justification to 
         calculate <S**2> as in Hartree-Fock theory. We will do it anyways
         but you should keep in mind that the values have only limited relevance

Expectation value of <S**2>     :     8.770807
Ideal value S*(S+1) for S=2.5   :     8.750000
Deviation                       :     0.020807

             **** THE GBW FILE WAS UPDATED (Qhigh_freq.gbw) ****
             **** DENSITY Qhigh_freq.scfp WAS UPDATED ****
----------------
ORBITAL ENERGIES
----------------
                 SPIN UP ORBITALS
  NO   OCC          E(Eh)            E(eV) 
   0   1.0000    -277.140970     -7541.3892 
   1   1.0000     -32.677565      -889.2018 
   2   1.0000     -28.298587      -770.0437 
   3   1.0000     -28.288182      -769.7606 
   4   1.0000     -28.285739      -769.6941 
   5   1.0000     -19.031462      -517.8724 
   6   1.0000     -19.031281      -517.8675 
   7   1.0000     -19.031046      -517.8611 
   8   1.0000     -19.030599      -517.8489 
   9   1.0000     -14.292659      -388.9230 
  10   1.0000     -14.292619      -388.9219 
  11   1.0000     -10.190353      -277.2936 
  12   1.0000     -10.190109      -277.2870 
  13   1.0000     -10.174987      -276.8755 
  14   1.0000     -10.174907      -276.8733 
  15   1.0000     -10.160925      -276.4928 
  16   1.0000     -10.160884      -276.4917 
  17   1.0000     -10.155882      -276.3556 
  18   1.0000     -10.155869      -276.3552 
  19   1.0000     -10.154093      -276.3069 
  20   1.0000     -10.153714      -276.2966 
  21   1.0000     -10.153567      -276.2926 
  22   1.0000     -10.153216      -276.2831 
  23   1.0000     -10.150062      -276.1972 
  24   1.0000     -10.150025      -276.1962 
  25   1.0000     -10.106387      -275.0088 
  26   1.0000     -10.105945      -274.9968 
  27   1.0000     -10.105799      -274.9928 
  28   1.0000     -10.105329      -274.9800 
  29   1.0000     -10.094937      -274.6972 
  30   1.0000     -10.094814      -274.6939 
  31   1.0000     -10.094193      -274.6770 
  32   1.0000     -10.094164      -274.6762 
  33   1.0000      -3.743881      -101.8762 
  34   1.0000      -2.442306       -66.4585 
  35   1.0000      -2.421325       -65.8876 
  36   1.0000      -2.416234       -65.7491 
  37   1.0000      -1.009917       -27.4812 
  38   1.0000      -1.006595       -27.3908 
  39   1.0000      -0.978772       -26.6337 
  40   1.0000      -0.973492       -26.4901 
  41   1.0000      -0.972904       -26.4741 
  42   1.0000      -0.954331       -25.9687 
  43   1.0000      -0.822115       -22.3709 
  44   1.0000      -0.814135       -22.1537 
  45   1.0000      -0.807763       -21.9804 
  46   1.0000      -0.805961       -21.9313 
  47   1.0000      -0.805296       -21.9132 
  48   1.0000      -0.755920       -20.5696 
  49   1.0000      -0.708018       -19.2662 
  50   1.0000      -0.707447       -19.2506 
  51   1.0000      -0.674394       -18.3512 
  52   1.0000      -0.673029       -18.3140 
  53   1.0000      -0.670531       -18.2461 
  54   1.0000      -0.660353       -17.9691 
  55   1.0000      -0.629849       -17.1391 
  56   1.0000      -0.617518       -16.8035 
  57   1.0000      -0.569887       -15.5074 
  58   1.0000      -0.569278       -15.4908 
  59   1.0000      -0.559192       -15.2164 
  60   1.0000      -0.552466       -15.0334 
  61   1.0000      -0.551772       -15.0145 
  62   1.0000      -0.518484       -14.1087 
  63   1.0000      -0.514201       -13.9921 
  64   1.0000      -0.494026       -13.4431 
  65   1.0000      -0.479364       -13.0441 
  66   1.0000      -0.477753       -13.0003 
  67   1.0000      -0.471117       -12.8197 
  68   1.0000      -0.458545       -12.4776 
  69   1.0000      -0.458406       -12.4739 
  70   1.0000      -0.453886       -12.3509 
  71   1.0000      -0.447016       -12.1639 
  72   1.0000      -0.445598       -12.1253 
  73   1.0000      -0.438608       -11.9351 
  74   1.0000      -0.434836       -11.8325 
  75   1.0000      -0.432650       -11.7730 
  76   1.0000      -0.422952       -11.5091 
  77   1.0000      -0.415265       -11.2999 
  78   1.0000      -0.407307       -11.0834 
  79   1.0000      -0.403644       -10.9837 
  80   1.0000      -0.401259       -10.9188 
  81   1.0000      -0.397218       -10.8089 
  82   1.0000      -0.396570       -10.7912 
  83   1.0000      -0.395970       -10.7749 
  84   1.0000      -0.388058       -10.5596 
  85   1.0000      -0.376919       -10.2565 
  86   1.0000      -0.352639        -9.5958 
  87   1.0000      -0.346767        -9.4360 
  88   1.0000      -0.346013        -9.4155 
  89   1.0000      -0.345810        -9.4100 
  90   1.0000      -0.343878        -9.3574 
  91   1.0000      -0.337281        -9.1779 
  92   1.0000      -0.335847        -9.1389 
  93   1.0000      -0.331701        -9.0260 
  94   1.0000      -0.321361        -8.7447 
  95   1.0000      -0.316196        -8.6041 
  96   1.0000      -0.309378        -8.4186 
  97   1.0000      -0.308181        -8.3860 
  98   1.0000      -0.305627        -8.3165 
  99   1.0000      -0.305032        -8.3003 
 100   1.0000      -0.298111        -8.1120 
 101   1.0000      -0.278595        -7.5809 
 102   1.0000      -0.265081        -7.2132 
 103   1.0000      -0.261496        -7.1157 
 104   1.0000      -0.260680        -7.0935 
 105   1.0000      -0.239333        -6.5126 
 106   1.0000      -0.237127        -6.4525 
 107   1.0000      -0.217073        -5.9069 
 108   1.0000      -0.216146        -5.8816 
 109   1.0000      -0.196590        -5.3495 
 110   1.0000      -0.196239        -5.3399 
 111   1.0000      -0.162923        -4.4334 
 112   1.0000      -0.161874        -4.4048 
 113   0.0000      -0.100046        -2.7224 
 114   0.0000      -0.073589        -2.0025 
 115   0.0000      -0.060670        -1.6509 
 116   0.0000      -0.018439        -0.5017 
 117   0.0000       0.002217         0.0603 
 118   0.0000       0.004195         0.1142 
 119   0.0000       0.010596         0.2883 
 120   0.0000       0.011819         0.3216 
 121   0.0000       0.022838         0.6215 
 122   0.0000       0.039932         1.0866 
 123   0.0000       0.053771         1.4632 
 124   0.0000       0.063803         1.7362 
 125   0.0000       0.067900         1.8476 
 126   0.0000       0.068555         1.8655 
 127   0.0000       0.075987         2.0677 
 128   0.0000       0.076541         2.0828 
 129   0.0000       0.082333         2.2404 
 130   0.0000       0.094757         2.5785 
 131   0.0000       0.096283         2.6200 
 132   0.0000       0.101229         2.7546 
 133   0.0000       0.102785         2.7969 
 134   0.0000       0.109792         2.9876 
 135   0.0000       0.119599         3.2544 
 136   0.0000       0.124096         3.3768 
 137   0.0000       0.126941         3.4542 
 138   0.0000       0.128103         3.4859 
 139   0.0000       0.129643         3.5278 
 140   0.0000       0.132345         3.6013 
 141   0.0000       0.136363         3.7106 
 142   0.0000       0.146193         3.9781 
 143   0.0000       0.151234         4.1153 
 144   0.0000       0.156383         4.2554 
 145   0.0000       0.160597         4.3701 
 146   0.0000       0.166051         4.5185 
 147   0.0000       0.169252         4.6056 
 148   0.0000       0.172468         4.6931 
 149   0.0000       0.175441         4.7740 
 150   0.0000       0.187242         5.0951 
 151   0.0000       0.189258         5.1500 
 152   0.0000       0.191605         5.2138 
 153   0.0000       0.193665         5.2699 
 154   0.0000       0.195212         5.3120 
 155   0.0000       0.202958         5.5228 
 156   0.0000       0.206032         5.6064 
 157   0.0000       0.213771         5.8170 
 158   0.0000       0.215490         5.8638 
 159   0.0000       0.217189         5.9100 
 160   0.0000       0.218724         5.9518 
 161   0.0000       0.219867         5.9829 
 162   0.0000       0.220590         6.0026 
 163   0.0000       0.225867         6.1462 
 164   0.0000       0.226577         6.1655 
 165   0.0000       0.228396         6.2150 
 166   0.0000       0.235111         6.3977 
 167   0.0000       0.239436         6.5154 
 168   0.0000       0.240040         6.5318 
 169   0.0000       0.245358         6.6765 
 170   0.0000       0.249906         6.8003 
 171   0.0000       0.257058         6.9949 
 172   0.0000       0.261413         7.1134 
 173   0.0000       0.262624         7.1464 
 174   0.0000       0.271898         7.3987 
 175   0.0000       0.273335         7.4378 
 176   0.0000       0.274232         7.4622 
 177   0.0000       0.275980         7.5098 
 178   0.0000       0.276772         7.5313 
 179   0.0000       0.288226         7.8430 
 180   0.0000       0.290006         7.8915 
 181   0.0000       0.291321         7.9272 
 182   0.0000       0.294130         8.0037 
 183   0.0000       0.298459         8.1215 
 184   0.0000       0.301354         8.2003 
 185   0.0000       0.303195         8.2503 
 186   0.0000       0.308430         8.3928 
 187   0.0000       0.310101         8.4383 
 188   0.0000       0.315888         8.5957 
 189   0.0000       0.318741         8.6734 
 190   0.0000       0.323936         8.8147 
 191   0.0000       0.327228         8.9043 
 192   0.0000       0.332251         9.0410 
 193   0.0000       0.334811         9.1107 
 194   0.0000       0.344351         9.3703 
 195   0.0000       0.347964         9.4686 
 196   0.0000       0.351890         9.5754 
 197   0.0000       0.353044         9.6068 
 198   0.0000       0.356578         9.7030 
 199   0.0000       0.359747         9.7892 
 200   0.0000       0.360216         9.8020 
 201   0.0000       0.365851         9.9553 
 202   0.0000       0.367342         9.9959 
 203   0.0000       0.368916        10.0387 
 204   0.0000       0.373069        10.1517 
 205   0.0000       0.375550        10.2192 
 206   0.0000       0.377469        10.2715 
 207   0.0000       0.382160        10.3991 
 208   0.0000       0.382705        10.4139 
 209   0.0000       0.387328        10.5397 
 210   0.0000       0.389484        10.5984 
 211   0.0000       0.391441        10.6516 
 212   0.0000       0.393936        10.7196 
 213   0.0000       0.394519        10.7354 
 214   0.0000       0.403641        10.9836 
 215   0.0000       0.408869        11.1259 
 216   0.0000       0.411495        11.1973 
 217   0.0000       0.421713        11.4754 
 218   0.0000       0.422662        11.5012 
 219   0.0000       0.425881        11.5888 
 220   0.0000       0.433344        11.7919 
 221   0.0000       0.433695        11.8014 
 222   0.0000       0.438079        11.9207 
 223   0.0000       0.440249        11.9798 
 224   0.0000       0.444037        12.0829 
 225   0.0000       0.448668        12.2089 
 226   0.0000       0.451141        12.2762 
 227   0.0000       0.452527        12.3139 
 228   0.0000       0.454480        12.3670 
 229   0.0000       0.457208        12.4413 
 230   0.0000       0.461276        12.5519 
 231   0.0000       0.463726        12.6186 
 232   0.0000       0.467475        12.7206 
 233   0.0000       0.472432        12.8555 
 234   0.0000       0.474282        12.9059 
 235   0.0000       0.479014        13.0346 
 236   0.0000       0.479790        13.0557 
 237   0.0000       0.483782        13.1644 
 238   0.0000       0.487353        13.2615 
 239   0.0000       0.492652        13.4057 
 240   0.0000       0.499314        13.5870 
 241   0.0000       0.503178        13.6922 
 242   0.0000       0.505666        13.7599 
 243   0.0000       0.506477        13.7819 
 244   0.0000       0.507966        13.8225 
 245   0.0000       0.511863        13.9285 
 246   0.0000       0.513364        13.9693 
 247   0.0000       0.518255        14.1024 
 248   0.0000       0.522951        14.2302 
 249   0.0000       0.534409        14.5420 
 250   0.0000       0.538853        14.6629 
 251   0.0000       0.547096        14.8872 
 252   0.0000       0.550657        14.9841 
 253   0.0000       0.569826        15.5058 
 254   0.0000       0.571509        15.5516 
 255   0.0000       0.574104        15.6222 
 256   0.0000       0.576502        15.6874 
 257   0.0000       0.581214        15.8156 
 258   0.0000       0.586535        15.9604 
 259   0.0000       0.587719        15.9926 
 260   0.0000       0.600134        16.3305 
 261   0.0000       0.603487        16.4217 
 262   0.0000       0.605441        16.4749 
 263   0.0000       0.609833        16.5944 
 264   0.0000       0.616900        16.7867 
 265   0.0000       0.620737        16.8911 
 266   0.0000       0.632272        17.2050 
 267   0.0000       0.634563        17.2673 
 268   0.0000       0.637459        17.3461 
 269   0.0000       0.640564        17.4306 
 270   0.0000       0.643857        17.5202 
 271   0.0000       0.648196        17.6383 
 272   0.0000       0.651739        17.7347 
 273   0.0000       0.655587        17.8394 
 274   0.0000       0.658165        17.9096 
 275   0.0000       0.658969        17.9315 
 276   0.0000       0.659798        17.9540 
 277   0.0000       0.667126        18.1534 
 278   0.0000       0.669726        18.2242 
 279   0.0000       0.671338        18.2680 
 280   0.0000       0.674845        18.3635 
 281   0.0000       0.679038        18.4776 
 282   0.0000       0.680775        18.5248 
 283   0.0000       0.685805        18.6617 
 284   0.0000       0.688263        18.7286 
 285   0.0000       0.692639        18.8477 
 286   0.0000       0.697372        18.9764 
 287   0.0000       0.704828        19.1793 
 288   0.0000       0.708593        19.2818 
 289   0.0000       0.711909        19.3720 
 290   0.0000       0.714750        19.4493 
 291   0.0000       0.719378        19.5753 
 292   0.0000       0.722965        19.6729 
 293   0.0000       0.733450        19.9582 
 294   0.0000       0.740765        20.1572 
 295   0.0000       0.741341        20.1729 
 296   0.0000       0.744419        20.2567 
 297   0.0000       0.752243        20.4696 
 298   0.0000       0.758642        20.6437 
 299   0.0000       0.760545        20.6955 
 300   0.0000       0.761781        20.7291 
 301   0.0000       0.765483        20.8298 
 302   0.0000       0.773278        21.0420 
 303   0.0000       0.781374        21.2623 
 304   0.0000       0.787363        21.4252 
 305   0.0000       0.788598        21.4588 
 306   0.0000       0.793552        21.5936 
 307   0.0000       0.798493        21.7281 
 308   0.0000       0.802544        21.8383 
 309   0.0000       0.807561        21.9749 
 310   0.0000       0.811719        22.0880 
 311   0.0000       0.816803        22.2264 
 312   0.0000       0.820007        22.3135 
 313   0.0000       0.830788        22.6069 
 314   0.0000       0.833131        22.6706 
 315   0.0000       0.838300        22.8113 
 316   0.0000       0.838663        22.8212 
 317   0.0000       0.848724        23.0949 
 318   0.0000       0.849682        23.1210 
 319   0.0000       0.859012        23.3749 
 320   0.0000       0.861071        23.4309 
 321   0.0000       0.862559        23.4714 
 322   0.0000       0.867064        23.5940 
 323   0.0000       0.870369        23.6839 
 324   0.0000       0.874251        23.7896 
 325   0.0000       0.884646        24.0724 
 326   0.0000       0.887224        24.1426 
 327   0.0000       0.892926        24.2978 
 328   0.0000       0.902431        24.5564 
 329   0.0000       0.904140        24.6029 
 330   0.0000       0.909871        24.7589 
 331   0.0000       0.917731        24.9727 
 332   0.0000       0.919136        25.0110 
 333   0.0000       0.928871        25.2759 
 334   0.0000       0.929908        25.3041 
 335   0.0000       0.937722        25.5167 
 336   0.0000       0.945650        25.7324 
 337   0.0000       0.948508        25.8102 
 338   0.0000       0.953097        25.9351 
 339   0.0000       0.959686        26.1144 
 340   0.0000       0.961777        26.1713 
 341   0.0000       0.965617        26.2758 
 342   0.0000       0.967667        26.3316 
 343   0.0000       0.979383        26.6504 
 344   0.0000       0.983413        26.7600 
 345   0.0000       0.984708        26.7953 
 346   0.0000       0.987996        26.8847 
 347   0.0000       0.992503        27.0074 
 348   0.0000       0.998148        27.1610 
 349   0.0000       0.999244        27.1908 
 350   0.0000       1.002034        27.2667 
 351   0.0000       1.002906        27.2905 
 352   0.0000       1.007461        27.4144 
 353   0.0000       1.010038        27.4845 
 354   0.0000       1.026225        27.9250 
 355   0.0000       1.027715        27.9655 
 356   0.0000       1.030158        28.0320 
 357   0.0000       1.032820        28.1044 
 358   0.0000       1.042913        28.3791 
 359   0.0000       1.050509        28.5858 
 360   0.0000       1.057738        28.7825 
 361   0.0000       1.064217        28.9588 
 362   0.0000       1.070205        29.1218 
 363   0.0000       1.076005        29.2796 
 364   0.0000       1.076851        29.3026 
 365   0.0000       1.081814        29.4377 
 366   0.0000       1.090041        29.6615 
 367   0.0000       1.092918        29.7398 
 368   0.0000       1.096662        29.8417 
 369   0.0000       1.101057        29.9613 
 370   0.0000       1.111092        30.2343 
 371   0.0000       1.116482        30.3810 
 372   0.0000       1.121973        30.5304 
 373   0.0000       1.123852        30.5816 
 374   0.0000       1.127141        30.6711 
 375   0.0000       1.134920        30.8827 
 376   0.0000       1.138748        30.9869 
 377   0.0000       1.149564        31.2812 
 378   0.0000       1.153376        31.3850 
 379   0.0000       1.156162        31.4608 
 380   0.0000       1.159867        31.5616 
 381   0.0000       1.161152        31.5965 
 382   0.0000       1.172859        31.9151 
 383   0.0000       1.173737        31.9390 
 384   0.0000       1.180719        32.1290 
 385   0.0000       1.185245        32.2522 
 386   0.0000       1.191208        32.4144 
 387   0.0000       1.195298        32.5257 
 388   0.0000       1.204547        32.7774 
 389   0.0000       1.207366        32.8541 
 390   0.0000       1.209059        32.9002 
 391   0.0000       1.212857        33.0035 
 392   0.0000       1.217809        33.1383 
 393   0.0000       1.222575        33.2680 
 394   0.0000       1.228605        33.4320 
 395   0.0000       1.234371        33.5889 
 396   0.0000       1.239705        33.7341 
 397   0.0000       1.242759        33.8172 
 398   0.0000       1.250557        34.0294 
 399   0.0000       1.253915        34.1208 
 400   0.0000       1.263592        34.3841 
 401   0.0000       1.266810        34.4716 
 402   0.0000       1.271110        34.5887 
 403   0.0000       1.274852        34.6905 
 404   0.0000       1.281220        34.8638 
 405   0.0000       1.287157        35.0253 
 406   0.0000       1.290211        35.1084 
 407   0.0000       1.295844        35.2617 
 408   0.0000       1.298755        35.3409 
 409   0.0000       1.307160        35.5696 
 410   0.0000       1.311554        35.6892 
 411   0.0000       1.317229        35.8436 
 412   0.0000       1.319303        35.9001 
 413   0.0000       1.320908        35.9437 
 414   0.0000       1.325534        36.0696 
 415   0.0000       1.328759        36.1574 
 416   0.0000       1.330809        36.2132 
 417   0.0000       1.337085        36.3839 
 418   0.0000       1.343125        36.5483 
 419   0.0000       1.344638        36.5895 
 420   0.0000       1.348223        36.6870 
 421   0.0000       1.354990        36.8712 
 422   0.0000       1.356868        36.9222 
 423   0.0000       1.360508        37.0213 
 424   0.0000       1.361619        37.0515 
 425   0.0000       1.375679        37.4341 
 426   0.0000       1.380078        37.5538 
 427   0.0000       1.387559        37.7574 
 428   0.0000       1.389316        37.8052 
 429   0.0000       1.394277        37.9402 
 430   0.0000       1.396639        38.0045 
 431   0.0000       1.402531        38.1648 
 432   0.0000       1.404988        38.2317 
 433   0.0000       1.416668        38.5495 
 434   0.0000       1.422035        38.6955 
 435   0.0000       1.425353        38.7858 
 436   0.0000       1.431564        38.9548 
 437   0.0000       1.433093        38.9964 
 438   0.0000       1.440611        39.2010 
 439   0.0000       1.443929        39.2913 
 440   0.0000       1.447799        39.3966 
 441   0.0000       1.450996        39.4836 
 442   0.0000       1.455552        39.6076 
 443   0.0000       1.456414        39.6310 
 444   0.0000       1.462451        39.7953 
 445   0.0000       1.473218        40.0883 
 446   0.0000       1.479426        40.2572 
 447   0.0000       1.485215        40.4148 
 448   0.0000       1.486820        40.4584 
 449   0.0000       1.487946        40.4891 
 450   0.0000       1.496122        40.7116 
 451   0.0000       1.498391        40.7733 
 452   0.0000       1.502476        40.8844 
 453   0.0000       1.526502        41.5382 
 454   0.0000       1.529362        41.6160 
 455   0.0000       1.537663        41.8419 
 456   0.0000       1.542706        41.9792 
 457   0.0000       1.548482        42.1363 
 458   0.0000       1.549695        42.1694 
 459   0.0000       1.563347        42.5408 
 460   0.0000       1.565459        42.5983 
 461   0.0000       1.567579        42.6560 
 462   0.0000       1.571571        42.7646 
 463   0.0000       1.595596        43.4184 
 464   0.0000       1.599048        43.5123 
 465   0.0000       1.608289        43.7638 
 466   0.0000       1.612402        43.8757 
 467   0.0000       1.616522        43.9878 
 468   0.0000       1.620408        44.0936 
 469   0.0000       1.624882        44.2153 
 470   0.0000       1.628832        44.3228 
 471   0.0000       1.640544        44.6415 
 472   0.0000       1.644812        44.7576 
 473   0.0000       1.649709        44.8909 
 474   0.0000       1.656056        45.0636 
 475   0.0000       1.659862        45.1671 
 476   0.0000       1.662145        45.2293 
 477   0.0000       1.667429        45.3731 
 478   0.0000       1.668362        45.3984 
 479   0.0000       1.672116        45.5006 
 480   0.0000       1.678721        45.6803 
 481   0.0000       1.679617        45.7047 
 482   0.0000       1.687328        45.9145 
 483   0.0000       1.690582        46.0031 
 484   0.0000       1.693269        46.0762 
 485   0.0000       1.703718        46.3605 
 486   0.0000       1.709587        46.5202 
 487   0.0000       1.714376        46.6505 
 488   0.0000       1.720915        46.8285 
 489   0.0000       1.725899        46.9641 
 490   0.0000       1.739842        47.3435 
 491   0.0000       1.742080        47.4044 
 492   0.0000       1.758581        47.8534 
 493   0.0000       1.759360        47.8746 
 494   0.0000       1.770572        48.1797 
 495   0.0000       1.775162        48.3046 
 496   0.0000       1.776936        48.3529 
 497   0.0000       1.784561        48.5604 
 498   0.0000       1.803202        49.0676 
 499   0.0000       1.811612        49.2965 
 500   0.0000       1.814134        49.3651 
 501   0.0000       1.822942        49.6048 
 502   0.0000       1.836648        49.9777 
 503   0.0000       1.839073        50.0437 
 504   0.0000       1.854647        50.4675 
 505   0.0000       1.858892        50.5830 
 506   0.0000       1.861948        50.6662 
 507   0.0000       1.873427        50.9785 
 508   0.0000       1.876246        51.0553 
 509   0.0000       1.879954        51.1561 
 510   0.0000       1.880937        51.1829 
 511   0.0000       1.904872        51.8342 
 512   0.0000       1.908728        51.9391 
 513   0.0000       1.912891        52.0524 
 514   0.0000       1.924123        52.3580 
 515   0.0000       1.925721        52.4015 
 516   0.0000       1.935937        52.6795 
 517   0.0000       1.946810        52.9754 
 518   0.0000       1.951563        53.1047 
 519   0.0000       1.956030        53.2263 
 520   0.0000       1.957180        53.2576 
 521   0.0000       1.965099        53.4731 
 522   0.0000       1.984480        54.0004 
 523   0.0000       1.986116        54.0450 
 524   0.0000       1.992742        54.2253 
 525   0.0000       1.996280        54.3215 
 526   0.0000       2.011549        54.7370 
 527   0.0000       2.014762        54.8245 
 528   0.0000       2.015114        54.8340 
 529   0.0000       2.019059        54.9414 
 530   0.0000       2.028577        55.2004 
 531   0.0000       2.031951        55.2922 
 532   0.0000       2.037058        55.4312 
 533   0.0000       2.045263        55.6544 
 534   0.0000       2.055197        55.9247 
 535   0.0000       2.058483        56.0142 
 536   0.0000       2.065899        56.2160 
 537   0.0000       2.072526        56.3963 
 538   0.0000       2.084212        56.7143 
 539   0.0000       2.097727        57.0821 
 540   0.0000       2.111664        57.4613 
 541   0.0000       2.122206        57.7482 
 542   0.0000       2.126256        57.8584 
 543   0.0000       2.128634        57.9231 
 544   0.0000       2.151478        58.5447 
 545   0.0000       2.163696        58.8772 
 546   0.0000       2.175698        59.2038 
 547   0.0000       2.181370        59.3581 
 548   0.0000       2.190971        59.6194 
 549   0.0000       2.196162        59.7606 
 550   0.0000       2.231804        60.7305 
 551   0.0000       2.235505        60.8312 
 552   0.0000       2.240862        60.9770 
 553   0.0000       2.243013        61.0355 
 554   0.0000       2.254994        61.3615 
 555   0.0000       2.259191        61.4757 
 556   0.0000       2.266948        61.6868 
 557   0.0000       2.270179        61.7747 
 558   0.0000       2.274544        61.8935 
 559   0.0000       2.290600        62.3304 
 560   0.0000       2.299069        62.5608 
 561   0.0000       2.311954        62.9115 
 562   0.0000       2.314712        62.9865 
 563   0.0000       2.321262        63.1647 
 564   0.0000       2.326445        63.3058 
 565   0.0000       2.338866        63.6438 
 566   0.0000       2.340999        63.7018 
 567   0.0000       2.350213        63.9525 
 568   0.0000       2.351895        63.9983 
 569   0.0000       2.358385        64.1749 
 570   0.0000       2.372658        64.5633 
 571   0.0000       2.381689        64.8091 
[...]
      f-2     :    -0.000019
      f+3     :    -0.000013
      f-3     :     0.000002
 20 C s       :    -0.000085  s :    -0.000085
      pz      :    -0.000208  p :    -0.003908
      px      :    -0.000845
      py      :    -0.002854
      dz2     :    -0.000010  d :     0.000182
      dxz     :     0.000017
      dyz     :     0.000031
      dx2y2   :     0.000107
      dxy     :     0.000037
      f0      :     0.000005  f :     0.000051
      f+1     :     0.000004
      f-1     :    -0.000001
      f+2     :     0.000012
      f-2     :     0.000010
      f+3     :     0.000017
      f-3     :     0.000005
 21 C s       :     0.000273  s :     0.000273
      pz      :     0.000950  p :     0.002225
      px      :     0.000315
      py      :     0.000960
      dz2     :    -0.000044  d :    -0.000421
      dxz     :     0.000071
      dyz     :    -0.000068
      dx2y2   :    -0.000145
      dxy     :    -0.000235
      f0      :    -0.000017  f :    -0.000070
      f+1     :    -0.000002
      f-1     :    -0.000009
      f+2     :    -0.000001
      f-2     :    -0.000007
      f+3     :    -0.000033
      f-3     :    -0.000001
 22 C s       :    -0.000221  s :    -0.000221
      pz      :    -0.000443  p :    -0.003845
      px      :    -0.000925
      py      :    -0.002477
      dz2     :     0.001721  d :     0.004484
      dxz     :     0.000834
      dyz     :     0.001014
      dx2y2   :     0.000653
      dxy     :     0.000263
      f0      :     0.000017  f :     0.000695
      f+1     :     0.000340
      f-1     :     0.000145
      f+2     :     0.000085
      f-2     :     0.000031
      f+3     :     0.000028
      f-3     :     0.000049
 23 N s       :     0.008221  s :     0.008221
      pz      :     0.003062  p :     0.031595
      px      :     0.018909
      py      :     0.009624
      dz2     :    -0.000187  d :     0.001983
      dxz     :     0.000337
      dyz     :     0.000139
      dx2y2   :     0.001312
      dxy     :     0.000382
      f0      :     0.000004  f :     0.000199
      f+1     :     0.000101
      f-1     :    -0.000030
      f+2     :    -0.000004
      f-2     :     0.000023
      f+3     :     0.000029
      f-3     :     0.000076
 24 C s       :    -0.000165  s :    -0.000165
      pz      :     0.000936  p :    -0.002442
      px      :    -0.000559
      py      :    -0.002818
      dz2     :     0.000122  d :     0.003653
      dxz     :     0.002140
      dyz     :     0.001126
      dx2y2   :     0.000189
      dxy     :     0.000075
      f0      :     0.000078  f :     0.000566
      f+1     :     0.000221
      f-1     :     0.000158
      f+2     :     0.000036
      f-2     :     0.000042
      f+3     :     0.000017
      f-3     :     0.000014
 25 C s       :     0.000203  s :     0.000203
      pz      :     0.000086  p :     0.002155
      px      :     0.000799
      py      :     0.001270
      dz2     :     0.000119  d :    -0.000157
      dxz     :     0.000569
      dyz     :    -0.000037
      dx2y2   :    -0.000525
      dxy     :    -0.000282
      f0      :     0.000012  f :    -0.000037
      f+1     :     0.000022
      f-1     :     0.000002
      f+2     :    -0.000032
      f-2     :    -0.000009
      f+3     :    -0.000024
      f-3     :    -0.000008
 26 C s       :    -0.000090  s :    -0.000090
      pz      :    -0.000317  p :    -0.003992
      px      :    -0.000787
      py      :    -0.002888
      dz2     :     0.000035  d :     0.000214
      dxz     :     0.000053
      dyz     :     0.000075
      dx2y2   :     0.000047
      dxy     :     0.000004
      f0      :     0.000007  f :     0.000055
      f+1     :     0.000011
      f-1     :     0.000011
      f+2     :     0.000012
      f-2     :     0.000007
      f+3     :     0.000002
      f-3     :     0.000003
 27 C s       :     0.000278  s :     0.000278
      pz      :     0.000165  p :     0.002378
      px      :     0.001193
      py      :     0.001020
      dz2     :    -0.000093  d :    -0.000449
      dxz     :     0.000216
      dyz     :    -0.000390
      dx2y2   :    -0.000290
      dxy     :     0.000108
      f0      :    -0.000011  f :    -0.000074
      f+1     :    -0.000011
      f-1     :    -0.000022
      f+2     :     0.000004
      f-2     :    -0.000001
      f+3     :    -0.000034
      f-3     :     0.000001
 28 C s       :    -0.000247  s :    -0.000247
      pz      :    -0.000311  p :    -0.004000
      px      :    -0.001420
      py      :    -0.002269
      dz2     :     0.002139  d :     0.004547
      dxz     :     0.000948
      dyz     :     0.000198
      dx2y2   :     0.000113
      dxy     :     0.001148
      f0      :     0.000281  f :     0.000704
      f+1     :     0.000059
      f-1     :     0.000044
      f+2     :     0.000111
      f-2     :     0.000132
      f+3     :     0.000038
      f-3     :     0.000039
 29 H s       :    -0.000781  s :    -0.000781
      pz      :     0.000762  p :     0.000836
      px      :     0.000083
      py      :    -0.000009
      dz2     :    -0.000007  d :     0.000269
      dxz     :     0.000257
      dyz     :    -0.000017
      dx2y2   :     0.000015
      dxy     :     0.000020
 30 H s       :    -0.002412  s :    -0.002412
      pz      :     0.005702  p :     0.007048
      px      :     0.000343
      py      :     0.001003
      dz2     :     0.000076  d :     0.001296
      dxz     :     0.000729
      dyz     :     0.000262
      dx2y2   :     0.000082
      dxy     :     0.000146
 31 H s       :    -0.002445  s :    -0.002445
      pz      :     0.005834  p :     0.007094
      px      :     0.000015
      py      :     0.001244
      dz2     :     0.000338  d :     0.001305
      dxz     :     0.000080
      dyz     :     0.000674
      dx2y2   :     0.000156
      dxy     :     0.000057
 32 H s       :    -0.000766  s :    -0.000766
      pz      :     0.000780  p :     0.000848
      px      :     0.000081
      py      :    -0.000013
      dz2     :     0.000040  d :     0.000263
      dxz     :     0.000149
      dyz     :     0.000045
      dx2y2   :     0.000001
      dxy     :     0.000028
 33 H s       :    -0.000771  s :    -0.000771
      pz      :     0.000039  p :     0.000874
      px      :     0.000726
      py      :     0.000108
      dz2     :    -0.000013  d :     0.000269
      dxz     :     0.000098
      dyz     :     0.000044
      dx2y2   :     0.000092
      dxy     :     0.000049
 34 H s       :    -0.002421  s :    -0.002421
      pz      :    -0.000013  p :     0.007039
      px      :     0.005340
      py      :     0.001712
      dz2     :     0.000046  d :     0.001293
      dxz     :     0.000008
      dyz     :     0.000024
      dx2y2   :     0.000739
      dxy     :     0.000476
 35 H s       :    -0.002404  s :    -0.002404
      pz      :     0.000450  p :     0.007029
      px      :     0.005201
      py      :     0.001378
      dz2     :     0.000037  d :     0.001291
      dxz     :     0.000818
      dyz     :     0.000232
      dx2y2   :     0.000118
      dxy     :     0.000086
 36 H s       :    -0.000783  s :    -0.000783
      pz      :     0.000047  p :     0.000835
      px      :     0.000688
      py      :     0.000100
      dz2     :     0.000001  d :     0.000268
      dxz     :     0.000230
      dyz     :     0.000056
      dx2y2   :    -0.000009
      dxy     :    -0.000009
 37 H s       :     0.000413  s :     0.000413
      pz      :     0.000133  p :     0.000259
      px      :     0.000042
      py      :     0.000084
      dz2     :     0.000004  d :     0.000033
      dxz     :     0.000008
      dyz     :     0.000004
      dx2y2   :     0.000008
      dxy     :     0.000008
 38 H s       :     0.000090  s :     0.000090
      pz      :    -0.000045  p :    -0.000351
      px      :    -0.000075
      py      :    -0.000231
      dz2     :    -0.000010  d :    -0.000063
      dxz     :    -0.000012
      dyz     :    -0.000039
      dx2y2   :     0.000000
      dxy     :    -0.000002
 39 H s       :     0.000371  s :     0.000371
      pz      :     0.000169  p :     0.000264
      px      :     0.000019
      py      :     0.000076
      dz2     :     0.000015  d :     0.000040
      dxz     :     0.000006
      dyz     :     0.000003
      dx2y2   :     0.000010
      dxy     :     0.000006
 40 H s       :     0.001190  s :     0.001190
      pz      :     0.000299  p :     0.000149
      px      :     0.000068
      py      :    -0.000219
      dz2     :     0.000001  d :    -0.000069
      dxz     :    -0.000007
      dyz     :    -0.000008
      dx2y2   :    -0.000031
      dxy     :    -0.000023
 41 H s       :     0.000410  s :     0.000410
      pz      :     0.000028  p :     0.000270
      px      :     0.000133
      py      :     0.000109
      dz2     :     0.000002  d :     0.000035
      dxz     :     0.000010
      dyz     :     0.000017
      dx2y2   :     0.000003
      dxy     :     0.000003
 42 H s       :     0.000091  s :     0.000091
      pz      :    -0.000029  p :    -0.000357
      px      :    -0.000088
      py      :    -0.000241
      dz2     :    -0.000002  d :    -0.000064
      dxz     :    -0.000004
      dyz     :    -0.000004
      dx2y2   :    -0.000033
      dxy     :    -0.000022
 43 H s       :     0.000368  s :     0.000368
      pz      :     0.000009  p :     0.000276
      px      :     0.000166
      py      :     0.000101
      dz2     :     0.000012  d :     0.000042
      dxz     :     0.000008
      dyz     :     0.000008
      dx2y2   :     0.000010
      dxy     :     0.000004
 44 H s       :     0.001163  s :     0.001163
      pz      :     0.000009  p :     0.000039
      px      :     0.000024
      py      :     0.000007
      dz2     :    -0.000022  d :    -0.000073
      dxz     :    -0.000013
      dyz     :    -0.000038
      dx2y2   :    -0.000003
      dxy     :     0.000004


                      *****************************
                      * MAYER POPULATION ANALYSIS *
                      *****************************

  NA   - Mulliken gross atomic population
  ZA   - Total nuclear charge
  QA   - Mulliken gross atomic charge
  VA   - Mayer's total valence
  BVA  - Mayer's bonded valence
  FA   - Mayer's free valence

  ATOM       NA         ZA         QA         VA         BVA        FA
  0 Co    25.9996    27.0000     1.0004     4.3734     1.9553     2.4181
  1 O      8.4381     8.0000    -0.4381     2.0386     1.9887     0.0498
  2 O      8.4492     8.0000    -0.4492     2.0223     1.9706     0.0517
  3 C      5.7775     6.0000     0.2225     3.9859     3.9636     0.0223
  4 C      5.7523     6.0000     0.2477     3.8856     3.8618     0.0238
  5 C      6.2114     6.0000    -0.2114     3.9862     3.9840     0.0022
  6 C      6.0550     6.0000    -0.0550     3.8900     3.8776     0.0124
  7 C      6.0573     6.0000    -0.0573     3.8948     3.8821     0.0127
  8 C      6.2114     6.0000    -0.2114     4.0097     4.0075     0.0022
  9 O      8.4460     8.0000    -0.4460     2.0260     1.9744     0.0515
 10 O      8.4380     8.0000    -0.4380     2.0362     1.9857     0.0505
 11 C      5.7635     6.0000     0.2365     3.8963     3.8728     0.0235
 12 C      5.7774     6.0000     0.2226     3.9828     3.9609     0.0219
 13 C      6.2093     6.0000    -0.2093     4.0091     4.0068     0.0022
 14 C      6.0583     6.0000    -0.0583     3.8960     3.8836     0.0124
 15 C      6.0547     6.0000    -0.0547     3.8885     3.8762     0.0123
 16 C      6.2116     6.0000    -0.2116     3.9814     3.9792     0.0022
 17 N      7.1790     7.0000    -0.1790     3.1394     3.1371     0.0023
 18 C      5.8507     6.0000     0.1493     3.9241     3.9241     0.0000
 19 C      6.0727     6.0000    -0.0727     3.9748     3.9748     0.0000
 20 C      6.0542     6.0000    -0.0542     3.9381     3.9381     0.0000
 21 C      6.0772     6.0000    -0.0772     3.8925     3.8925     0.0000
 22 C      6.0147     6.0000    -0.0147     4.1001     4.1000     0.0000
 23 N      7.1818     7.0000    -0.1818     3.1264     3.1241     0.0023
 24 C      5.8470     6.0000     0.1530     3.9185     3.9184     0.0000
 25 C      6.0718     6.0000    -0.0718     3.9745     3.9745     0.0000
 26 C      6.0544     6.0000    -0.0544     3.9390     3.9390     0.0000
 27 C      6.0780     6.0000    -0.0780     3.8940     3.8940     0.0000
 28 C      6.0144     6.0000    -0.0144     4.0999     4.0998     0.0001
 29 H      0.9231     1.0000     0.0769     1.0199     1.0198     0.0000
 30 H      0.9193     1.0000     0.0807     0.9985     0.9984     0.0001
 31 H      0.9204     1.0000     0.0796     0.9983     0.9982     0.0001
 32 H      0.9302     1.0000     0.0698     1.0215     1.0215     0.0000
 33 H      0.9303     1.0000     0.0697     1.0213     1.0213     0.0000
 34 H      0.9203     1.0000     0.0797     0.9983     0.9982     0.0001
 35 H      0.9191     1.0000     0.0809     0.9985     0.9984     0.0001
 36 H      0.9225     1.0000     0.0775     1.0198     1.0197     0.0000
 37 H      0.9253     1.0000     0.0747     1.0151     1.0151     0.0000
 38 H      0.9029     1.0000     0.0971     1.0022     1.0022     0.0000
 39 H      0.9016     1.0000     0.0984     1.0048     1.0048     0.0000
 40 H      0.8744     1.0000     0.1256     1.0053     1.0053     0.0000
 41 H      0.9252     1.0000     0.0748     1.0151     1.0151     0.0000
 42 H      0.9030     1.0000     0.0970     1.0023     1.0023     0.0000
 43 H      0.9017     1.0000     0.0983     1.0049     1.0049     0.0000
 44 H      0.8742     1.0000     0.1258     1.0048     1.0048     0.0000

  Mayer bond orders larger than 0.100000
B(  0-Co,  1-O ) :   0.2948 B(  0-Co,  2-O ) :   0.3056 B(  0-Co,  9-O ) :   0.3061 
B(  0-Co, 10-O ) :   0.2910 B(  0-Co, 17-N ) :   0.2319 B(  0-Co, 23-N ) :   0.2239 
B(  1-O ,  3-C ) :   1.4641 B(  2-O ,  4-C ) :   1.3929 B(  3-C ,  4-C ) :   1.0519 
B(  3-C ,  8-C ) :   1.2636 B(  4-C ,  5-C ) :   1.2536 B(  5-C ,  6-C ) :   1.5266 
B(  5-C , 29-H ) :   0.9882 B(  6-C ,  7-C ) :   1.2412 B(  6-C , 30-H ) :   0.9847 
B(  7-C ,  8-C ) :   1.5319 B(  7-C , 31-H ) :   0.9858 B(  8-C , 32-H ) :   0.9921 
B(  9-O , 11-C ) :   1.4005 B( 10-O , 12-C ) :   1.4657 B( 11-C , 12-C ) :   1.0528 
B( 11-C , 16-C ) :   1.2521 B( 12-C , 13-C ) :   1.2633 B( 13-C , 14-C ) :   1.5331 
B( 13-C , 33-H ) :   0.9921 B( 14-C , 15-C ) :   1.2412 B( 14-C , 34-H ) :   0.9863 
B( 15-C , 16-C ) :   1.5257 B( 15-C , 35-H ) :   0.9849 B( 16-C , 36-H ) :   0.9878 
B( 17-N , 18-C ) :   1.2620 B( 17-N , 22-C ) :   1.5101 B( 18-C , 19-C ) :   1.3943 
B( 18-C , 24-C ) :   1.0353 B( 19-C , 20-C ) :   1.4376 B( 19-C , 37-H ) :   0.9753 
B( 20-C , 21-C ) :   1.3814 B( 20-C , 38-H ) :   0.9758 B( 21-C , 22-C ) :   1.4011 
B( 21-C , 39-H ) :   0.9814 B( 22-C , 40-H ) :   0.9633 B( 23-N , 24-C ) :   1.2587 
B( 23-N , 28-C ) :   1.5098 B( 24-C , 25-C ) :   1.3944 B( 25-C , 26-C ) :   1.4375 
B( 25-C , 41-H ) :   0.9749 B( 26-C , 27-C ) :   1.3816 B( 26-C , 42-H ) :   0.9760 
B( 27-C , 28-C ) :   1.4025 B( 27-C , 43-H ) :   0.9813 B( 28-C , 44-H ) :   0.9626 


-------
TIMINGS
-------

Total SCF time: 0 days 0 hours 31 min 49 sec 

Total time                  ....    1909.800 sec
Sum of individual times     ....    1879.245 sec  ( 98.4%)

Fock matrix formation       ....    1474.595 sec  ( 77.2%)
  Split-RI-J                ....     169.755 sec  ( 11.5% of F)
  Chain of spheres X        ....    1017.600 sec  ( 69.0% of F)
  XC integration            ....     258.372 sec  ( 17.5% of F)
    Basis function eval.    ....      11.045 sec  (  4.3% of XC)
    Density eval.           ....     126.804 sec  ( 49.1% of XC)
    XC-Functional eval.     ....       3.660 sec  (  1.4% of XC)
    XC-Potential eval.      ....      83.263 sec  ( 32.2% of XC)
Diagonalization             ....     216.349 sec  ( 11.3%)
Density matrix formation    ....      12.909 sec  (  0.7%)
Population analysis         ....       1.706 sec  (  0.1%)
Initial guess               ....       1.934 sec  (  0.1%)
Orbital Transformation      ....      83.601 sec  (  4.4%)
Orbital Orthonormalization  ....       0.000 sec  (  0.0%)
DIIS solution               ....      82.158 sec  (  4.3%)
Grid generation             ....       4.965 sec  (  0.3%)

Maximum memory used throughout the entire SCF-calculation: 356.6 MB


-------------------------------------------------------------------------------
                          DFT DISPERSION CORRECTION                            
                                                                               
                              DFTD3 V3.1  Rev 1                                
                          USING Becke-Johnson damping                          
-------------------------------------------------------------------------------
The TPSSH functional is recognized
Active option DFTDOPT                   ...         4   

molecular C6(AA) [au] = 29173.048180 


            DFT-D V3
 parameters
 s6 scaling factor         :     1.0000 
 a1 scaling factor         :     0.4529 
 s8 scaling factor         :     2.2382 
 a2 scaling factor         :     4.6550 
 ad hoc parameters k1-k3   :    16.0000     1.3333    -4.0000 

 Edisp/kcal,au: -49.458838244106  -0.078817667322 
 E6   /kcal   : -22.902255680 
 E8   /kcal   : -26.556582564 
 % E8         :  53.694311284 

-------------------------   ----------------
Dispersion correction           -0.078817667
-------------------------   ----------------


-------------------------   --------------------
FINAL SINGLE POINT ENERGY     -2641.735974259173
-------------------------   --------------------


                            ***************************************
                            *     ORCA property calculations      *
                            ***************************************

                                    ---------------------
                                    Active property flags
                                    ---------------------
   (+) Dipole Moment


------------------------------------------------------------------------------
                       ORCA ELECTRIC PROPERTIES CALCULATION
------------------------------------------------------------------------------

Dipole Moment Calculation                       ... on
Quadrupole Moment Calculation                   ... off
Polarizability Calculation                      ... off
GBWName                                         ... Qhigh_freq.gbw
Electron density                                ... Qhigh_freq.scfp
The origin for moment calculation is the CENTER OF MASS  = (43.232209, 18.652647 20.418292)

-------------
DIPOLE MOMENT
-------------
                                X             Y             Z
Electronic contribution:     -0.35408       0.56320       0.12222
Nuclear contribution   :      2.53924      -1.06800       2.13654
                        -----------------------------------------
Total Dipole Moment    :      2.18516      -0.50480       2.25876
                        -----------------------------------------
Magnitude (a.u.)       :      3.18304
Magnitude (Debye)      :      8.09064



--------------------
Rotational spectrum 
--------------------
 
Rotational constants in cm-1:     0.005794     0.005396     0.003712 
Rotational constants in MHz :   173.705346   161.778049   111.278827 

 Dipole components along the rotational axes: 
x,y,z [a.u.] :     0.713433     3.101122    -0.076124 
x,y,z [Debye]:     1.813403     7.882425    -0.193491 

 

Timings for individual modules:

Sum of individual times         ...     1914.511 sec (=  31.909 min)
GTO integral calculation        ...        3.311 sec (=   0.055 min)   0.2 %
SCF iterations                  ...     1911.200 sec (=  31.853 min)  99.8 %
                             ****ORCA TERMINATED NORMALLY****
TOTAL RUN TIME: 0 days 0 hours 31 minutes 56 seconds 179 msec
