Starting Job at 16h23m46s_05_10_23
Starting Job from host liverpool

                                 *****************
                                 * O   R   C   A *
                                 *****************

                                            #,                                       
                                            ###                                      
                                            ####                                     
                                            #####                                    
                                            ######                                   
                                           ########,                                 
                                     ,,################,,,,,                         
                               ,,#################################,,                 
                          ,,##########################################,,             
                       ,#########################################, ''#####,          
                    ,#############################################,,   '####,        
                  ,##################################################,,,,####,       
                ,###########''''           ''''###############################       
              ,#####''   ,,,,##########,,,,          '''####'''          '####       
            ,##' ,,,,###########################,,,                        '##       
           ' ,,###''''                  '''############,,,                           
         ,,##''                                '''############,,,,        ,,,,,,###''
      ,#''                                            '''#######################'''  
     '                                                          ''''####''''         
             ,#######,   #######,   ,#######,      ##                                
            ,#'     '#,  ##    ##  ,#'     '#,    #''#        ######   ,####,        
            ##       ##  ##   ,#'  ##            #'  '#       #        #'  '#        
            ##       ##  #######   ##           ,######,      #####,   #    #        
            '#,     ,#'  ##    ##  '#,     ,#' ,#      #,         ##   #,  ,#        
             '#######'   ##     ##  '#######'  #'      '#     #####' # '####'        



                  #######################################################
                  #                        -***-                        #
                  #          Department of theory and spectroscopy      #
                  #    Directorship and core code : Frank Neese         #
                  #        Max Planck Institute fuer Kohlenforschung    #
                  #                Kaiser Wilhelm Platz 1               #
                  #                 D-45470 Muelheim/Ruhr               #
                  #                      Germany                        #
                  #                                                     #
                  #                  All rights reserved                #
                  #                        -***-                        #
                  #######################################################


                         Program Version 5.0.3 -  RELEASE  -


 With contributions from (in alphabetic order):
   Daniel Aravena         : Magnetic Suceptibility
   Michael Atanasov       : Ab Initio Ligand Field Theory (pilot matlab implementation)
   Alexander A. Auer      : GIAO ZORA, VPT2 properties, NMR spectrum
   Ute Becker             : Parallelization
   Giovanni Bistoni       : ED, misc. LED, open-shell LED, HFLD
   Martin Brehm           : Molecular dynamics
   Dmytro Bykov           : SCF Hessian
   Vijay G. Chilkuri      : MRCI spin determinant printing, contributions to CSF-ICE
   Dipayan Datta          : RHF DLPNO-CCSD density
   Achintya Kumar Dutta   : EOM-CC, STEOM-CC
   Dmitry Ganyushin       : Spin-Orbit,Spin-Spin,Magnetic field MRCI
   Miquel Garcia          : C-PCM and meta-GGA Hessian, CC/C-PCM, Gaussian charge scheme
   Yang Guo               : DLPNO-NEVPT2, F12-NEVPT2, CIM, IAO-localization
   Andreas Hansen         : Spin unrestricted coupled pair/coupled cluster methods
   Benjamin Helmich-Paris : MC-RPA, TRAH-SCF, COSX integrals
   Lee Huntington         : MR-EOM, pCC
   Robert Izsak           : Overlap fitted RIJCOSX, COSX-SCS-MP3, EOM
   Marcus Kettner         : VPT2
   Christian Kollmar      : KDIIS, OOCD, Brueckner-CCSD(T), CCSD density, CASPT2, CASPT2-K
   Simone Kossmann        : Meta GGA functionals, TD-DFT gradient, OOMP2, MP2 Hessian
   Martin Krupicka        : Initial AUTO-CI
   Lucas Lang             : DCDCAS
   Marvin Lechner         : AUTO-CI (C++ implementation), FIC-MRCC
   Dagmar Lenk            : GEPOL surface, SMD
   Dimitrios Liakos       : Extrapolation schemes; Compound Job, initial MDCI parallelization
   Dimitrios Manganas     : Further ROCIS development; embedding schemes
   Dimitrios Pantazis     : SARC Basis sets
   Anastasios Papadopoulos: AUTO-CI, single reference methods and gradients
   Taras Petrenko         : DFT Hessian,TD-DFT gradient, ASA, ECA, R-Raman, ABS, FL, XAS/XES, NRVS
   Peter Pinski           : DLPNO-MP2, DLPNO-MP2 Gradient
   Christoph Reimann      : Effective Core Potentials
   Marius Retegan         : Local ZFS, SOC
   Christoph Riplinger    : Optimizer, TS searches, QM/MM, DLPNO-CCSD(T), (RO)-DLPNO pert. Triples
   Tobias Risthaus        : Range-separated hybrids, TD-DFT gradient, RPA, STAB
   Michael Roemelt        : Original ROCIS implementation
   Masaaki Saitow         : Open-shell DLPNO-CCSD energy and density
   Barbara Sandhoefer     : DKH picture change effects
   Avijit Sen             : IP-ROCIS
   Kantharuban Sivalingam : CASSCF convergence, NEVPT2, FIC-MRCI
   Bernardo de Souza      : ESD, SOC TD-DFT
   Georgi Stoychev        : AutoAux, RI-MP2 NMR, DLPNO-MP2 response
   Willem Van den Heuvel  : Paramagnetic NMR
   Boris Wezisla          : Elementary symmetry handling
   Frank Wennmohs         : Technical directorship


 We gratefully acknowledge several colleagues who have allowed us to
 interface, adapt or use parts of their codes:
   Stefan Grimme, W. Hujo, H. Kruse, P. Pracht,  : VdW corrections, initial TS optimization,
                  C. Bannwarth, S. Ehlert          DFT functionals, gCP, sTDA/sTD-DF
   Ed Valeev, F. Pavosevic, A. Kumar             : LibInt (2-el integral package), F12 methods
   Garnet Chan, S. Sharma, J. Yang, R. Olivares  : DMRG
   Ulf Ekstrom                                   : XCFun DFT Library
   Mihaly Kallay                                 : mrcc  (arbitrary order and MRCC methods)
   Jiri Pittner, Ondrej Demel                    : Mk-CCSD
   Frank Weinhold                                : gennbo (NPA and NBO analysis)
   Christopher J. Cramer and Donald G. Truhlar   : smd solvation model
   Lars Goerigk                                  : TD-DFT with DH, B97 family of functionals
   V. Asgeirsson, H. Jonsson                     : NEB implementation
   FAccTs GmbH                                   : IRC, NEB, NEB-TS, DLPNO-Multilevel, CI-OPT
                                                   MM, QMMM, 2- and 3-layer-ONIOM, Crystal-QMMM,
                                                   LR-CPCM, SF, NACMEs, symmetry and pop. for TD-DFT,
                                                   nearIR, NL-DFT gradient (VV10), updates on ESD,
                                                   ML-optimized integration grids
   S Lehtola, MJT Oliveira, MAL Marques          : LibXC Library
   Liviu Ungur et al                             : ANISO software


 Your calculation uses the libint2 library for the computation of 2-el integrals
 For citations please refer to: http://libint.valeyev.net

 Your ORCA version has been built with support for libXC version: 5.1.0
 For citations please refer to: https://tddft.org/programs/libxc/

 This ORCA versions uses:
   CBLAS   interface :  Fast vector & matrix operations
   LAPACKE interface :  Fast linear algebra routines
   SCALAPACK package :  Parallel linear algebra routines
   Shared memory     :  Shared parallel matrices
   BLAS/LAPACK       :  OpenBLAS 0.3.15  USE64BITINT DYNAMIC_ARCH NO_AFFINITY Zen SINGLE_THREADED
        Core in use  :  Zen
   Copyright (c) 2011-2014, The OpenBLAS Project


Your calculation utilizes the geometrical counterpoise correction gCP
Please cite in your paper:
H.Kruse, S. Grimme J.Chem.Phys., 136, (2012), 154101 
   

Your calculation utilizes the atom-pairwise dispersion correction
with the Becke-Johnson damping scheme (D3BJ)
Cite in your paper:
S.Grimme, S.Ehrlich, L.Goerigk, J Comput Chem, (2011), 32, 1456–1465 
S.Grimme, J.Antony, S.Ehrlich and H.Krieg, J.Chem.Phys., 132, (2010), 154104 
   

Your calculation employs the composite approach PBEh-3c.
Please cite in your paper:
S. Grimme, J. G. Brandenburg, C. Bannwarth, A. Hansen J.Chem.Phys., 143, (2015), 054107 
   

================================================================================

----- Orbital basis set information -----
Your calculation utilizes the basis: def2-mSVP

----- AuxJ basis set information -----
Your calculation utilizes the auxiliary basis: def2/J
   F. Weigend, Phys. Chem. Chem. Phys. 8, 1057 (2006).

================================================================================
                                        WARNINGS
                       Please study these warnings very carefully!
================================================================================


WARNING: your system is open-shell and RHF/RKS was chosen
  ===> : WILL SWITCH to UHF/UKS


WARNING: Geometry Optimization
  ===> : Switching off AutoStart
         For restart on a previous wavefunction, please use MOREAD

INFO   : the flag for use of the SHARK integral package has been found!

================================================================================
                                       INPUT FILE
================================================================================
NAME = LowT.inp
|  1> ! PBEh-3c 
|  2> ! Tightopt
|  3> 
|  4> %scf
|  5> maxiter 900
|  6> end
|  7> 
|  8> %pal
|  9> nprocs 12
| 10> end
| 11> 
| 12> * xyz 0 2
| 13> Co        22.97083        9.68218       10.81296
| 14> O         23.65146       11.37818       10.37614
| 15> O         21.28218       10.41335       10.65699
| 16> C         22.62406       12.19059       10.03679
| 17> C         21.35960       11.67562       10.16718
| 18> C         20.27022       12.43772        9.78938
| 19> C         20.53562       13.73698        9.28788
| 20> C         21.81351       14.21644        9.18758
| 21> C         22.86460       13.44250        9.56705
| 22> O         22.89829        9.21176        8.98530
| 23> O         22.14072        8.00128       11.11670
| 24> C         22.01750        8.27800        8.82817
| 25> C         21.55663        7.61357       10.02509
| 26> C         20.59141        6.58363        9.92813
| 27> C         20.10678        6.27435        8.70613
| 28> C         20.58173        6.90771        7.49918
| 29> C         21.49863        7.88290        7.57273
| 30> N         23.13726       10.05228       12.72821
| 31> C         24.36052        9.86287       13.21467
| 32> C         24.63849       10.17806       14.52861
| 33> C         23.62705       10.67232       15.36111
| 34> C         22.34540       10.79810       14.82951
| 35> C         22.12013       10.51250       13.48213
| 36> N         24.78076        9.05342       11.08327
| 37> C         25.30717        9.31386       12.30193
| 38> C         26.62391        9.05490       12.59781
| 39> C         27.39403        8.48073       11.63325
| 40> C         26.87477        8.19957       10.40289
| 41> C         25.57493        8.49997       10.13709
| 42> H         19.30656       12.07708        9.86880
| 43> H         19.74782       14.33434        8.99195
| 44> H         21.97950       15.16755        8.82308
| 45> H         23.83022       13.80030        9.49938
| 46> H         20.26622        6.08184       10.76925
| 47> H         19.36820        5.55735        8.63239
| 48> H         20.21604        6.61030        6.58111
| 49> H         21.82688        8.34666        6.71122
| 50> H         25.59331       10.04937       14.89846
| 51> H         23.89246       10.96188       16.33275
| 52> H         21.56387       11.10197       15.43110
| 53> H         21.18518       10.65225       13.06816
| 54> H         27.01692        9.28855       13.52300
| 55> H         28.44932        8.30975       11.92219
| 56> H         27.46482        7.76158        9.67831
| 57> H         25.18873        8.30308        9.20056
| 58> *
| 59> 
| 60>                          ****END OF INPUT****
================================================================================

                       *****************************
                       * Geometry Optimization Run *
                       *****************************

Geometry optimization settings:
Update method            Update   .... BFGS
Choice of coordinates    CoordSys .... Z-matrix Internals
Initial Hessian          InHess   .... Almoef's Model

Convergence Tolerances:
Energy Change            TolE     ....  1.0000e-06 Eh
Max. Gradient            TolMAXG  ....  1.0000e-04 Eh/bohr
RMS Gradient             TolRMSG  ....  3.0000e-05 Eh/bohr
Max. Displacement        TolMAXD  ....  1.0000e-03 bohr
RMS Displacement         TolRMSD  ....  6.0000e-04 bohr
Strict Convergence                ....  False
------------------------------------------------------------------------------
                        ORCA OPTIMIZATION COORDINATE SETUP
------------------------------------------------------------------------------

The optimization will be done in new redundant internal coordinates
Making redundant internal coordinates   ...  (new redundants) done
Evaluating the initial hessian          ...  (Almloef) done
Evaluating the coordinates              ...  done
Calculating the B-matrix                .... done
Calculating the G-matrix                .... done
Diagonalizing the G-matrix              .... done
Small eigenvalue found = 2.992e-02
The first mode is                       ....  488
The number of degrees of freedom        ....  129

    -----------------------------------------------------------------
                    Redundant Internal Coordinates


    -----------------------------------------------------------------
         Definition                    Initial Value    Approx d2E/dq
    -----------------------------------------------------------------
      1. B(O   1,Co  0)                  1.8790         0.939503   
      2. B(O   2,Co  0)                  1.8467         1.057522   
      3. B(C   3,O   1)                  1.3530         0.640976   
      4. B(C   3,Co  0)                  2.6485         0.062077   
      5. B(C   4,Co  0)                  2.6433         0.063291   
      6. B(C   4,C   3)                  1.3715         0.668697   
      7. B(C   4,O   2)                  1.3562         0.633618   
      8. B(C   5,C   4)                  1.3821         0.643128   
      9. B(C   6,C   5)                  1.4178         0.564241   
     10. B(C   7,C   6)                  1.3686         0.676007   
     11. B(C   8,C   3)                  1.3586         0.701189   
     12. B(C   8,C   7)                  1.3593         0.699318   
     13. B(O   9,Co  0)                  1.8886         0.906731   
     14. B(O  10,Co  0)                  1.8991         0.872341   
     15. B(C  11,Co  0)                  2.6115         0.071127   
     16. B(C  11,O   9)                  1.2932         0.798546   
     17. B(C  12,C  11)                  1.4445         0.511493   
     18. B(C  12,O  10)                  1.2973         0.786516   
     19. B(C  12,Co  0)                  2.6268         0.067251   
     20. B(C  13,C  12)                  1.4149         0.570265   
     21. B(C  14,C  13)                  1.3505         0.722413   
     22. B(C  15,C  14)                  1.4434         0.513471   
     23. B(C  16,C  15)                  1.3406         0.749223   
     24. B(C  16,C  11)                  1.4147         0.570537   
     25. B(N  17,Co  0)                  1.9578         0.703336   
     26. B(C  18,N  17)                  1.3300         0.697607   
     27. B(C  18,Co  0)                  2.7807         0.038207   
     28. B(C  19,C  18)                  1.3795         0.649342   
     29. B(C  20,C  19)                  1.4001         0.601976   
     30. B(C  21,C  20)                  1.3932         0.617462   
     31. B(C  22,N  17)                  1.3471         0.655053   
     32. B(C  22,C  21)                  1.3956         0.612036   
     33. B(N  23,Co  0)                  1.9350         0.764673   
     34. B(C  24,N  23)                  1.3528         0.641542   
     35. B(C  24,C  18)                  1.4250         0.549393   
     36. B(C  24,Co  0)                  2.7948         0.036268   
     37. B(C  25,C  24)                  1.3742         0.662149   
     38. B(C  26,C  25)                  1.3613         0.694274   
     39. B(C  27,C  26)                  1.3647         0.685594   
     40. B(C  28,C  27)                  1.3603         0.696770   
     41. B(C  28,N  23)                  1.3536         0.639629   
     42. B(H  29,C   5)                  1.0320         0.445625   
     43. B(H  30,C   6)                  1.0320         0.445599   
     44. B(H  31,C   7)                  1.0320         0.445614   
     45. B(H  32,C   8)                  1.0320         0.445615   
     46. B(H  33,C  13)                  1.0320         0.445613   
     47. B(H  34,C  14)                  1.0320         0.445611   
     48. B(H  35,C  15)                  1.0320         0.445605   
     49. B(H  36,C  16)                  1.0320         0.445616   
     50. B(H  37,C  19)                  1.0320         0.445608   
     51. B(H  38,C  20)                  1.0480         0.420126   
     52. B(H  39,C  21)                  1.0320         0.445604   
     53. B(H  40,C  22)                  1.0320         0.445607   
     54. B(H  41,C  25)                  1.0320         0.445612   
     55. B(H  42,C  26)                  1.1074         0.337790   
     56. B(H  43,C  27)                  1.0320         0.445624   
     57. B(H  44,C  28)                  1.0320         0.445629   
     58. A(C   3,Co  0,C   4)           30.0422         0.252111   
     59. A(O  10,Co  0,C  11)           59.0755         0.391829   
     60. A(C   3,Co  0,C  18)          104.8926         0.234503   
     61. A(C  11,Co  0,N  17)          151.1863         0.377423   
     62. A(C   4,Co  0,C  18)          117.8169         0.235142   
     63. A(C  11,Co  0,C  18)          150.9058         0.239054   
     64. A(O   1,Co  0,N  17)           91.4900         0.603262   
     65. A(O   9,Co  0,C  18)          150.6006         0.354407   
     66. A(O  10,Co  0,C  18)           97.9218         0.352095   
     67. A(C   4,Co  0,N  17)           98.5259         0.369904   
     68. A(C   4,Co  0,C  12)          101.0961         0.255094   
     69. A(C   4,Co  0,N  23)          148.1400         0.375270   
     70. A(O  10,Co  0,N  23)           95.6760         0.604362   
     71. A(O   1,Co  0,O   2)           87.3762         0.652994   
     72. A(C   3,Co  0,O  10)          145.8827         0.382644   
     73. A(C  12,Co  0,N  17)          119.2136         0.373788   
     74. A(O   2,Co  0,C  12)           78.1220         0.401329   
     75. A(N  17,Co  0,C  18)           25.8775         0.339579   
     76. A(O   2,Co  0,N  17)           94.9053         0.617222   
     77. A(O   1,Co  0,C   3)           28.8874         0.387615   
     78. A(O   1,Co  0,C  11)          116.1601         0.396956   
     79. A(C  12,Co  0,C  18)          125.4016         0.237163   
     80. A(N  17,Co  0,N  23)           81.0978         0.579846   
     81. A(O   9,Co  0,N  23)           95.1737         0.608892   
     82. A(O   1,Co  0,C  24)           86.5600         0.353412   
     83. A(O  10,Co  0,C  24)           99.4125         0.349010   
     84. A(C   3,Co  0,C  24)          112.9786         0.232797   
     85. A(C   4,Co  0,O   9)           85.8716         0.386527   
     86. A(O   2,Co  0,C  24)          149.4914         0.360590   
     87. A(C  11,Co  0,N  23)          105.8373         0.382933   
     88. A(C   3,Co  0,C  12)          125.9768         0.254367   
     89. A(N  17,Co  0,C  24)           55.4353         0.336641   
     90. A(O   1,Co  0,O  10)          173.9405         0.628948   
     91. A(O   1,Co  0,C  12)          146.7332         0.393075   
     92. A(C   3,Co  0,N  17)           96.8218         0.368674   
     93. A(N  23,Co  0,C  24)           25.9527         0.341372   
     94. A(O   9,Co  0,O  10)           85.2693         0.624627   
     95. A(O   1,Co  0,N  23)           89.2524         0.613087   
     96. A(O   2,Co  0,C   4)           28.7655         0.397069   
     97. A(O   9,Co  0,C  11)           27.9405         0.394491   
     98. A(C  12,Co  0,C  24)          120.4024         0.235426   
     99. A(O  10,Co  0,N  17)           92.7520         0.594701   
    100. A(C  18,Co  0,N  23)           55.4583         0.344366   
    101. A(C   4,Co  0,C  11)           89.8454         0.257214   
    102. A(O   9,Co  0,C  12)           59.5297         0.390641   
    103. A(O  10,Co  0,C  12)           27.8261         0.388013   
    104. A(C  11,Co  0,C  12)           32.0121         0.259540   
    105. A(C   4,Co  0,C  24)          137.6550         0.233429   
    106. A(O   1,Co  0,O   9)           90.7887         0.633695   
    107. A(O   1,Co  0,C   4)           58.8879         0.388927   
    108. A(O   9,Co  0,C  24)          120.9868         0.351296   
    109. A(O   2,Co  0,O   9)           88.9552         0.648480   
    110. A(C   3,Co  0,O   9)           86.9778         0.385225   
    111. A(C  11,Co  0,C  24)          129.7326         0.237295   
    112. A(C  18,Co  0,C  24)           29.6149         0.217837   
    113. A(C   4,Co  0,O  10)          116.1120         0.383934   
    114. A(O   2,Co  0,C  11)           79.3328         0.405315   
    115. A(C   3,Co  0,C  11)          103.8109         0.256478   
    116. A(O   2,Co  0,C  18)          120.2785         0.363811   
    117. A(O   2,Co  0,O  10)           87.9515         0.643605   
    118. A(O   2,Co  0,C   3)           58.7050         0.395721   
    119. A(C  12,Co  0,N  23)          106.8333         0.379229   
    120. A(O   2,Co  0,N  23)          174.7065         0.627313   
    121. A(C   3,Co  0,N  23)          118.1090         0.374018   
    122. A(O   1,Co  0,C  18)           87.7711         0.356549   
    123. A(Co  0,O   1,C   3)          108.9788         0.523966   
    124. A(Co  0,O   2,C   4)          110.2923         0.534607   
    125. A(O   1,C   3,C   4)          116.7928         0.439765   
    126. A(C   4,C   3,C   8)          122.8260         0.449937   
    127. A(Co  0,C   3,C   4)           74.7661         0.329809   
    128. A(Co  0,C   3,O   1)           42.1338         0.325550   
    129. A(O   1,C   3,C   8)          120.3685         0.443553   
    130. A(Co  0,C   3,C   8)          161.9632         0.332409   
    131. A(Co  0,C   4,C   5)          164.3799         0.328743   
    132. A(O   2,C   4,C   3)          115.8770         0.438850   
    133. A(Co  0,C   4,C   3)           75.1917         0.330868   
    134. A(Co  0,C   4,O   2)           40.9422         0.325970   
    135. A(C   3,C   4,C   5)          119.5804         0.442944   
    136. A(O   2,C   4,C   5)          124.5372         0.435777   
    137. A(C   6,C   5,H  29)          121.4852         0.360105   
    138. A(C   4,C   5,C   6)          117.0299         0.429596   
    139. A(C   4,C   5,H  29)          121.4849         0.368255   
    140. A(C   5,C   6,C   7)          121.4518         0.433461   
    141. A(C   7,C   6,H  30)          119.2742         0.371421   
    142. A(C   5,C   6,H  30)          119.2741         0.360101   
    143. A(C   6,C   7,C   8)          120.1383         0.450607   
    144. A(C   8,C   7,H  31)          119.9310         0.373598   
    145. A(C   6,C   7,H  31)          119.9307         0.371423   
    146. A(C   3,C   8,C   7)          118.9641         0.453613   
    147. A(C   7,C   8,H  32)          120.5176         0.373598   
    148. A(C   3,C   8,H  32)          120.5182         0.373770   
    149. A(Co  0,O   9,C  11)          108.8802         0.542493   
    150. A(Co  0,O  10,C  12)          109.0700         0.537000   
    151. A(C  12,C  11,C  16)          119.3304         0.413204   
    152. A(O   9,C  11,C  16)          124.0055         0.444646   
    153. A(Co  0,C  11,C  16)          163.4348         0.328577   
    154. A(O   9,C  11,C  12)          116.6639         0.435960   
    155. A(Co  0,C  11,C  12)           74.5755         0.322726   
    156. A(Co  0,C  11,O   9)           43.1793         0.345393   
    157. A(C  11,C  12,C  13)          119.7172         0.413169   
    158. A(O  10,C  12,C  13)          125.6160         0.443388   
    159. A(Co  0,C  12,C  13)          163.9681         0.325532   
    160. A(O  10,C  12,C  11)          114.5892         0.434770   
    161. A(Co  0,C  12,C  11)           73.4124         0.319781   
    162. A(Co  0,C  12,O  10)           43.1039         0.341294   
    163. A(C  12,C  13,C  14)          118.2639         0.439518   
    164. A(C  14,C  13,H  33)          120.8682         0.375699   
    165. A(C  12,C  13,H  33)          120.8679         0.360756   
    166. A(C  13,C  14,C  15)          122.5512         0.431293   
    167. A(C  15,C  14,H  34)          118.7247         0.354379   
    168. A(C  13,C  14,H  34)          118.7241         0.375698   
    169. A(C  14,C  15,C  16)          119.8927         0.434128   
    170. A(C  16,C  15,H  35)          120.0537         0.378072   
    171. A(C  14,C  15,H  35)          120.0536         0.354378   
    172. A(C  15,C  16,H  36)          119.9107         0.378073   
    173. A(C  11,C  16,H  36)          119.9105         0.360786   
    174. A(C  11,C  16,C  15)          120.1788         0.442459   
    175. A(C  18,N  17,C  22)          122.5747         0.441959   
    176. A(Co  0,N  17,C  22)          123.2226         0.498385   
    177. A(Co  0,N  17,C  18)          114.1473         0.504258   
    178. A(C  19,C  18,C  24)          124.3494         0.428283   
    179. A(N  17,C  18,C  24)          115.5686         0.430997   
    180. A(Co  0,C  18,C  24)           75.7439         0.295371   
    181. A(N  17,C  18,C  19)          120.0771         0.444183   
    182. A(Co  0,C  18,C  19)          159.7536         0.303327   
    183. A(Co  0,C  18,N  17)           39.9753         0.305041   
    184. A(C  20,C  19,H  37)          119.9533         0.364104   
    185. A(C  18,C  19,C  20)          120.0941         0.435376   
    186. A(C  18,C  19,H  37)          119.9526         0.368861   
    187. A(C  19,C  20,C  21)          118.0045         0.431451   
    188. A(C  21,C  20,H  38)          124.1786         0.362027   
    189. A(C  19,C  20,H  38)          117.7645         0.360462   
    190. A(C  20,C  21,C  22)          119.8934         0.432739   
    191. A(C  22,C  21,H  39)          120.0532         0.365137   
    192. A(C  20,C  21,H  39)          120.0534         0.365690   
    193. A(N  17,C  22,C  21)          119.2319         0.434501   
    194. A(C  21,C  22,H  40)          120.3837         0.365138   
    195. A(N  17,C  22,H  40)          120.3843         0.367109   
    196. A(C  24,N  23,C  28)          118.6923         0.433466   
    197. A(Co  0,N  23,C  28)          125.7317         0.503962   
    198. A(Co  0,N  23,C  24)          115.2937         0.504243   
    199. A(N  23,C  24,C  25)          122.0419         0.439055   
    200. A(C  18,C  24,C  25)          124.8359         0.429787   
    201. A(Co  0,C  24,C  25)          160.1420         0.301753   
    202. A(C  18,C  24,N  23)          113.1210         0.424573   
    203. A(Co  0,C  24,N  23)           38.7536         0.298498   
    204. A(Co  0,C  24,C  18)           74.6412         0.292951   
    205. A(C  24,C  25,C  26)          117.9690         0.448327   
    206. A(C  26,C  25,H  41)          121.0159         0.373132   
    207. A(C  24,C  25,H  41)          121.0151         0.370101   
    208. A(C  25,C  26,C  27)          120.6933         0.451168   
    209. A(C  27,C  26,H  42)          124.4716         0.355105   
    210. A(C  25,C  26,H  42)          114.7933         0.355863   
    211. A(C  26,C  27,C  28)          119.6192         0.451462   
    212. A(C  28,C  27,H  43)          120.1900         0.373365   
    213. A(C  26,C  27,H  43)          120.1908         0.372326   
    214. A(N  23,C  28,C  27)          120.9525         0.442877   
    215. A(C  27,C  28,H  44)          119.5234         0.373365   
    216. A(N  23,C  28,H  44)          119.5241         0.365616   
    217. D(C   3,O   1,Co  0,N  17)   -101.4678         0.007546   
    218. D(C   3,O   1,Co  0,C  18)   -127.0817         0.007546   
    219. D(C   3,O   1,Co  0,C  12)     56.9219         0.007546   
    220. D(C   3,O   1,Co  0,O   2)     -6.6242         0.007546   
    221. D(C   3,O   1,Co  0,O   9)     82.2936         0.007546   
    222. D(C   3,O   1,Co  0,C  11)     70.1403         0.007546   
    223. D(C   3,O   1,Co  0,N  23)    177.4579         0.007546   
    224. D(C   3,O   1,Co  0,O  10)     32.9615         0.007546   
    225. D(C   3,O   1,Co  0,C  24)   -156.7095         0.007546   
    226. D(C   3,O   1,Co  0,C   4)     -2.4045         0.007546   
    227. D(C   4,O   2,Co  0,C  18)     93.4025         0.009207   
    228. D(C   4,O   2,Co  0,O   1)      7.5221         0.009207   
    229. D(C   4,O   2,Co  0,O   9)    -83.3154         0.009207   
    230. D(C   4,O   2,Co  0,N  17)     98.7938         0.009207   
    231. D(C   4,O   2,Co  0,C  24)     86.2138         0.009207   
    232. D(C   4,O   2,Co  0,C   3)      3.7828         0.009207   
    233. D(C   4,O   2,Co  0,O  10)   -168.6184         0.009207   
    234. D(C   4,O   2,Co  0,N  23)     58.0146         0.009207   
    235. D(C   4,O   2,Co  0,C  11)   -109.7190         0.009207   
    236. D(C   4,O   2,Co  0,C  12)   -142.3555         0.009207   
    237. D(C   4,C   3,Co  0,O   1)   -175.8856         0.001529   
    238. D(O   1,C   3,Co  0,C  24)     25.3850         0.001529   
    239. D(C   4,C   3,O   1,Co  0)      4.4479         0.033449   
    240. D(O   1,C   3,Co  0,O   2)    172.2496         0.001529   
    241. D(C   8,C   3,Co  0,O   9)    -81.0430         0.001529   
    242. D(O   1,C   3,Co  0,N  17)     80.6416         0.001529   
    243. D(O   1,C   3,Co  0,O   9)    -97.1358         0.001529   
    244. D(O   1,C   3,Co  0,C  18)     55.5765         0.001529   
    245. D(C   8,C   3,Co  0,C  11)   -103.5277         0.001529   
    246. D(C   8,C   3,Co  0,N  23)     13.2108         0.001529   
    247. D(O   1,C   3,Co  0,N  23)     -2.8820         0.001529   
    248. D(C   4,C   3,Co  0,O  10)      9.9916         0.001529   
    249. D(C   4,C   3,Co  0,C  18)   -120.3091         0.001529   
    250. D(C   4,C   3,Co  0,C  12)     38.7234         0.001529   
    251. D(C   8,C   3,O   1,Co  0)   -174.2910         0.033449   
    252. D(C   8,C   3,Co  0,O   2)   -171.6575         0.001529   
    253. D(C   4,C   3,Co  0,N  23)   -178.7676         0.001529   
    254. D(O   1,C   3,Co  0,O  10)   -174.1228         0.001529   
    255. D(C   8,C   3,Co  0,C  24)     41.4778         0.001529   
    256. D(C   8,C   3,Co  0,O   1)     16.0928         0.001529   
    257. D(C   4,C   3,Co  0,C  24)   -150.5006         0.001529   
    258. D(C   4,C   3,Co  0,O   9)     86.9786         0.001529   
    259. D(O   1,C   3,Co  0,C  12)   -145.3910         0.001529   
    260. D(O   1,C   3,Co  0,C   4)    175.8856         0.001529   
    261. D(C   4,C   3,Co  0,O   2)     -3.6360         0.001529   
    262. D(C   8,C   3,Co  0,C   4)   -168.0216         0.001529   
    263. D(C   8,C   3,Co  0,N  17)     96.7345         0.001529   
    264. D(C   4,C   3,Co  0,N  17)    -95.2440         0.001529   
    265. D(C   4,C   3,Co  0,C  11)     64.4939         0.001529   
    266. D(C   8,C   3,Co  0,C  18)     71.6693         0.001529   
    267. D(C   8,C   3,Co  0,C  12)   -129.2981         0.001529   
    268. D(C   8,C   3,Co  0,O  10)   -158.0300         0.001529   
    269. D(O   1,C   3,Co  0,C  11)   -119.6205         0.001529   
    270. D(O   2,C   4,Co  0,N  23)   -171.4747         0.001530   
    271. D(O   2,C   4,Co  0,C  18)   -102.9169         0.001530   
    272. D(O   2,C   4,Co  0,N  17)    -84.6405         0.001530   
    273. D(O   2,C   4,Co  0,C  12)     37.5222         0.001530   
    274. D(O   2,C   4,Co  0,C  11)     67.6826         0.001530   
    275. D(O   2,C   4,Co  0,O  10)     12.6875         0.001530   
    276. D(O   2,C   4,Co  0,C   3)   -173.5343         0.001530   
    277. D(O   2,C   4,Co  0,O   9)     95.3644         0.001530   
    278. D(O   2,C   4,Co  0,C  24)   -131.2338         0.001530   
    279. D(O   2,C   4,Co  0,O   1)   -171.2141         0.001530   
    280. D(C   5,C   4,C   3,Co  0)   -174.4939         0.036567   
    281. D(C   3,C   4,O   2,Co  0)     -6.9498         0.032623   
    282. D(C   5,C   4,C   3,O   1)   -177.5849         0.036567   
    283. D(C   5,C   4,O   2,Co  0)    172.2037         0.032623   
    284. D(Co  0,C   4,C   3,C   8)    175.6142         0.036567   
    285. D(O   2,C   4,C   3,O   1)      1.6134         0.036567   
    286. D(O   2,C   4,C   3,Co  0)      4.7044         0.036567   
    287. D(C   3,C   4,Co  0,N  17)     88.8938         0.001530   
    288. D(C   3,C   4,Co  0,O  10)   -173.7782         0.001530   
    289. D(C   5,C   4,Co  0,C  18)   -127.4366         0.001530   
    290. D(C   5,C   4,Co  0,C  12)     13.0025         0.001530   
    291. D(C   5,C   4,Co  0,N  23)    164.0057         0.001530   
    292. D(C   5,C   4,Co  0,O  10)    -11.8321         0.001530   
    293. D(C   5,C   4,Co  0,O   9)     70.8448         0.001530   
    294. D(C   5,C   4,Co  0,C  11)     43.1630         0.001530   
    295. D(C   5,C   4,Co  0,O   1)    164.2663         0.001530   
    296. D(C   5,C   4,Co  0,N  17)   -109.1601         0.001530   
    297. D(C   5,C   4,Co  0,C   3)    161.9461         0.001530   
    298. D(C   5,C   4,Co  0,O   2)    -24.5196         0.001530   
    299. D(C   3,C   4,Co  0,O   2)    173.5343         0.001530   
    300. D(O   2,C   4,C   3,C   8)   -179.6814         0.036567   
    301. D(C   3,C   4,Co  0,C  18)     70.6174         0.001530   
    302. D(Co  0,C   4,C   3,O   1)     -3.0910         0.036567   
    303. D(C   3,C   4,Co  0,N  23)      2.0596         0.001530   
    304. D(C   3,C   4,Co  0,C  11)   -118.7831         0.001530   
    305. D(C   5,C   4,C   3,C   8)      1.1203         0.036567   
    306. D(C   3,C   4,Co  0,O   9)    -91.1013         0.001530   
    307. D(C   3,C   4,Co  0,C  12)   -148.9435         0.001530   
    308. D(C   5,C   4,Co  0,C  24)   -155.7535         0.001530   
    309. D(C   3,C   4,Co  0,C  24)     42.3005         0.001530   
    310. D(C   3,C   4,Co  0,O   1)      2.3202         0.001530   
    311. D(H  29,C   5,C   4,C   3)    179.5776         0.031260   
    312. D(C   6,C   5,C   4,O   2)   -179.5469         0.031260   
    313. D(C   6,C   5,C   4,C   3)     -0.4226         0.031260   
    314. D(C   6,C   5,C   4,Co  0)   -160.2699         0.031260   
    315. D(H  29,C   5,C   4,O   2)      0.4533         0.031260   
    316. D(H  29,C   5,C   4,Co  0)     19.7303         0.031260   
    317. D(H  30,C   6,C   5,H  29)     -0.2501         0.021821   
    318. D(C   7,C   6,C   5,H  29)    179.7496         0.021821   
    319. D(C   7,C   6,C   5,C   4)     -0.2502         0.021821   
    320. D(H  30,C   6,C   5,C   4)    179.7501         0.021821   
    321. D(H  31,C   7,C   6,H  30)      0.2757         0.032004   
    322. D(H  31,C   7,C   6,C   5)   -179.7241         0.032004   
    323. D(C   8,C   7,C   6,H  30)   -179.7236         0.032004   
    324. D(C   8,C   7,C   6,C   5)      0.2767         0.032004   
    325. D(H  32,C   8,C   7,H  31)      0.3800         0.034438   
    326. D(C   3,C   8,C   7,H  31)   -179.6199         0.034438   
    327. D(C   3,C   8,C   7,C   6)      0.3794         0.034438   
    328. D(H  32,C   8,C   3,C   4)    178.9051         0.037681   
    329. D(H  32,C   8,C   7,C   6)   -179.6207         0.034438   
    330. D(H  32,C   8,C   3,O   1)     -2.4345         0.037681   
    331. D(H  32,C   8,C   3,Co  0)    -14.8813         0.037681   
    332. D(C   7,C   8,C   3,C   4)     -1.0950         0.037681   
    333. D(C   7,C   8,C   3,O   1)    177.5654         0.037681   
    334. D(C   7,C   8,C   3,Co  0)    165.1186         0.037681   
    335. D(C  11,O   9,Co  0,C  12)      7.9587         0.007123   
    336. D(C  11,O   9,Co  0,O  10)     19.1759         0.007123   
    337. D(C  11,O   9,Co  0,C   4)    -97.4879         0.007123   
    338. D(C  11,O   9,Co  0,C  18)    116.9256         0.007123   
    339. D(C  11,O   9,Co  0,C   3)   -127.5701         0.007123   
    340. D(C  11,O   9,Co  0,O   2)    -68.8548         0.007123   
    341. D(C  11,O   9,Co  0,N  23)    114.4634         0.007123   
    342. D(C  11,O   9,Co  0,O   1)   -156.2159         0.007123   
    343. D(C  11,O   9,Co  0,C  24)    117.3233         0.007123   
    344. D(C  12,O  10,Co  0,C  18)   -171.6371         0.006696   
    345. D(C  12,O  10,Co  0,C  24)   -141.7092         0.006696   
    346. D(C  12,O  10,Co  0,N  23)   -115.7939         0.006696   
    347. D(C  12,O  10,Co  0,N  17)    162.8859         0.006696   
    348. D(C  12,O  10,Co  0,C  11)    -10.7145         0.006696   
    349. D(C  12,O  10,Co  0,O   9)    -21.0499         0.006696   
    350. D(C  12,O  10,Co  0,C   4)     61.9997         0.006696   
    351. D(C  12,O  10,Co  0,C   3)     56.4484         0.006696   
    352. D(C  12,O  10,Co  0,O   2)     68.0707         0.006696   
    353. D(C  12,O  10,Co  0,O   1)     28.5044         0.006696   
    354. D(C  16,C  11,O   9,Co  0)    166.1069         0.054341   
    355. D(C  12,C  11,O   9,Co  0)    -14.0542         0.054341   
    356. D(C  16,C  11,Co  0,C  24)   -126.3259         0.001538   
    357. D(C  16,C  11,Co  0,C  12)    148.7312         0.001538   
    358. D(C  16,C  11,Co  0,O  10)    158.1537         0.001538   
    359. D(C  16,C  11,Co  0,O   9)    -44.2789         0.001538   
    360. D(C  16,C  11,Co  0,N  17)    144.7978         0.001538   
    361. D(C  16,C  11,Co  0,C   4)     37.1776         0.001538   
    362. D(C  16,C  11,Co  0,C   3)     10.3154         0.001538   
    363. D(C  16,C  11,Co  0,O   1)    -17.5818         0.001538   
    364. D(C  12,C  11,Co  0,N  23)     96.5507         0.001538   
    365. D(C  16,C  11,Co  0,C  18)   -160.1053         0.001538   
    366. D(C  12,C  11,Co  0,N  17)     -3.9334         0.001538   
    367. D(C  16,C  11,Co  0,N  23)   -114.7181         0.001538   
    368. D(C  12,C  11,Co  0,O  10)      9.4224         0.001538   
    369. D(C  12,C  11,Co  0,O   9)    166.9899         0.001538   
    370. D(C  12,C  11,Co  0,C  24)     84.9428         0.001538   
    371. D(C  12,C  11,Co  0,C   4)   -111.5536         0.001538   
    372. D(C  12,C  11,Co  0,C   3)   -138.4158         0.001538   
    373. D(C  12,C  11,Co  0,C  18)     51.1635         0.001538   
    374. D(C  16,C  11,Co  0,O   2)     64.1145         0.001538   
    375. D(C  12,C  11,Co  0,O   2)    -84.6167         0.001538   
    376. D(C  12,C  11,Co  0,O   1)   -166.3130         0.001538   
    377. D(O   9,C  11,Co  0,C  24)    -82.0470         0.001538   
    378. D(O   9,C  11,Co  0,N  23)    -70.4392         0.001538   
    379. D(O   9,C  11,Co  0,C  18)   -115.8264         0.001538   
    380. D(O   9,C  11,Co  0,N  17)   -170.9233         0.001538   
    381. D(O   9,C  11,Co  0,C   3)     54.5943         0.001538   
    382. D(O   9,C  11,Co  0,O   1)     26.6971         0.001538   
    383. D(O   9,C  11,Co  0,O   2)    108.3934         0.001538   
    384. D(O   9,C  11,Co  0,O  10)   -157.5674         0.001538   
    385. D(O   9,C  11,Co  0,C  12)   -166.9899         0.001538   
    386. D(O   9,C  11,Co  0,C   4)     81.4565         0.001538   
    387. D(C  13,C  12,C  11,C  16)     -0.2687         0.020741   
    388. D(C  13,C  12,C  11,O   9)    179.8845         0.020741   
    389. D(C  13,C  12,C  11,Co  0)    169.9583         0.020741   
    390. D(O  10,C  12,C  11,C  16)    176.7061         0.020741   
    391. D(O  10,C  12,C  11,Co  0)    -13.0670         0.020741   
    392. D(Co  0,C  12,C  11,C  16)   -170.2270         0.020741   
    393. D(Co  0,C  12,C  11,O   9)      9.9262         0.020741   
    394. D(C  11,C  12,O  10,Co  0)     18.4876         0.052523   
    395. D(C  13,C  12,Co  0,C  24)     95.8970         0.001534   
    396. D(C  13,C  12,Co  0,N  23)    120.1619         0.001534   
    397. D(C  13,C  12,Co  0,N  17)     31.0817         0.001534   
    398. D(C  13,C  12,Co  0,C  11)   -146.7475         0.001534   
    399. D(C  13,C  12,Co  0,O  10)     50.7619         0.001534   
    400. D(C  13,C  12,Co  0,O   9)   -153.7773         0.001534   
    401. D(C  13,C  12,Co  0,C   4)    -75.3438         0.001534   
    402. D(C  13,C  12,Co  0,C   3)    -93.9550         0.001534   
    403. D(C  13,C  12,Co  0,O   2)    -57.9154         0.001534   
    404. D(C  13,C  12,Co  0,O   1)   -123.9687         0.001534   
    405. D(C  11,C  12,Co  0,C  24)   -117.3555         0.001534   
    406. D(C  11,C  12,Co  0,C  18)   -152.3112         0.001534   
    407. D(C  11,C  12,Co  0,N  17)    177.8292         0.001534   
    408. D(C  11,C  12,Co  0,C   4)     71.4037         0.001534   
    409. D(O  10,C  12,Co  0,C  24)     45.1350         0.001534   
    410. D(C  11,C  12,Co  0,O   9)     -7.0297         0.001534   
    411. D(O  10,C  12,Co  0,N  23)     69.3999         0.001534   
    412. D(O  10,C  12,Co  0,C  18)     10.1793         0.001534   
    413. D(O  10,C  12,Co  0,N  17)    -19.6803         0.001534   
    414. D(C  13,C  12,Co  0,C  18)     60.9412         0.001534   
    415. D(O  10,C  12,Co  0,C  11)    162.4905         0.001534   
    416. D(C  11,C  12,Co  0,O   1)     22.7788         0.001534   
    417. D(O  10,C  12,Co  0,O   9)    155.4608         0.001534   
    418. D(C  13,C  12,O  10,Co  0)   -164.7446         0.052523   
    419. D(O  10,C  12,Co  0,C   4)   -126.1057         0.001534   
    420. D(O  10,C  12,Co  0,C   3)   -144.7170         0.001534   
    421. D(O  10,C  12,Co  0,O   2)   -108.6774         0.001534   
    422. D(O  10,C  12,C  11,O   9)     -3.1407         0.020741   
    423. D(C  11,C  12,Co  0,O  10)   -162.4905         0.001534   
    424. D(C  11,C  12,Co  0,C   3)     52.7925         0.001534   
    425. D(O  10,C  12,Co  0,O   1)   -174.7307         0.001534   
    426. D(C  11,C  12,Co  0,N  23)    -93.0906         0.001534   
    427. D(C  11,C  12,Co  0,O   2)     88.8321         0.001534   
    428. D(H  33,C  13,C  12,C  11)    178.5374         0.024220   
    429. D(H  33,C  13,C  12,O  10)      1.9217         0.024220   
    430. D(H  33,C  13,C  12,Co  0)    -38.6980         0.024220   
    431. D(C  14,C  13,C  12,C  11)     -1.4622         0.024220   
    432. D(C  14,C  13,C  12,O  10)   -178.0779         0.024220   
    433. D(C  14,C  13,C  12,Co  0)    141.3025         0.024220   
    434. D(H  34,C  14,C  13,H  33)      3.0345         0.036959   
    435. D(H  34,C  14,C  13,C  12)   -176.9659         0.036959   
    436. D(C  15,C  14,C  13,H  33)   -176.9657         0.036959   
    437. D(C  15,C  14,C  13,C  12)      3.0339         0.036959   
    438. D(H  35,C  15,C  14,H  34)     -2.8893         0.017972   
    439. D(H  35,C  15,C  14,C  13)    177.1109         0.017972   
    440. D(C  16,C  15,C  14,H  34)    177.1105         0.017972   
    441. D(C  16,C  15,C  14,C  13)     -2.8893         0.017972   
    442. D(H  36,C  16,C  15,C  14)   -178.9882         0.040024   
    443. D(C  11,C  16,C  15,H  35)   -178.9878         0.040024   
    444. D(C  11,C  16,C  15,C  14)      1.0125         0.040024   
    445. D(H  36,C  16,C  11,C  12)   -179.5387         0.024244   
    446. D(H  36,C  16,C  11,O   9)      0.2962         0.024244   
    447. D(H  36,C  16,C  11,Co  0)     35.4861         0.024244   
    448. D(C  15,C  16,C  11,C  12)      0.4606         0.024244   
    449. D(C  15,C  16,C  11,O   9)   -179.7045         0.024244   
    450. D(H  36,C  16,C  15,H  35)      1.0115         0.040024   
    451. D(C  15,C  16,C  11,Co  0)   -144.5146         0.024244   
    452. D(C  22,N  17,Co  0,C  24)   -179.6520         0.004990   
    453. D(C  22,N  17,Co  0,N  23)   -175.4322         0.004990   
    454. D(C  22,N  17,Co  0,C  18)    177.3505         0.004990   
    455. D(C  22,N  17,Co  0,C  11)    -68.6708         0.004990   
    456. D(C  22,N  17,Co  0,O  10)    -80.1136         0.004990   
    457. D(C  22,N  17,Co  0,C   4)     36.8077         0.004990   
    458. D(C  22,N  17,Co  0,C   3)     67.0802         0.004990   
    459. D(C  22,N  17,Co  0,O   2)      8.0645         0.004990   
    460. D(C  22,N  17,Co  0,O   1)     95.5582         0.004990   
    461. D(C  18,N  17,Co  0,C  24)      2.9975         0.004990   
    462. D(C  18,N  17,Co  0,N  23)      7.2173         0.004990   
    463. D(C  18,N  17,Co  0,C  12)    111.5910         0.004990   
    464. D(C  18,N  17,Co  0,C  11)    113.9787         0.004990   
    465. D(C  18,N  17,Co  0,O  10)    102.5359         0.004990   
    466. D(C  22,N  17,Co  0,C  12)    -71.0585         0.004990   
    467. D(C  18,N  17,Co  0,C   4)   -140.5428         0.004990   
    468. D(C  18,N  17,Co  0,C   3)   -110.2703         0.004990   
    469. D(C  18,N  17,Co  0,O   2)   -169.2860         0.004990   
    470. D(C  18,N  17,O   9,C  11)    120.6300         0.001500   
    471. D(C  18,N  17,Co  0,O   1)    -81.7923         0.004990   
    472. D(C  22,N  17,O   9,C  11)    -60.5495         0.001500   
    473. D(C  24,C  18,N  17,C  22)    177.2579         0.043803   
    474. D(C  24,C  18,N  17,Co  0)     -5.3723         0.043803   
    475. D(C  19,C  18,N  17,C  22)     -1.9710         0.043803   
    476. D(C  19,C  18,N  17,Co  0)    175.3988         0.043803   
    477. D(Co  0,C  18,N  17,C  22)   -177.3698         0.043803   
    478. D(C  24,C  18,Co  0,N  17)    175.0009         0.001512   
    479. D(C  24,C  18,Co  0,C  12)     90.3475         0.001512   
    480. D(C  24,C  18,Co  0,C  11)     59.9116         0.001512   
    481. D(C  24,C  18,Co  0,O   9)      0.6899         0.001512   
    482. D(C  24,C  18,Co  0,C   4)   -139.7160         0.001512   
    483. D(C  24,C  18,Co  0,C   3)   -110.4623         0.001512   
    484. D(C  24,C  18,Co  0,O   1)    -86.9595         0.001512   
    485. D(C  19,C  18,Co  0,C  24)    173.4273         0.001512   
    486. D(C  19,C  18,Co  0,N  23)    177.0946         0.001512   
    487. D(C  19,C  18,Co  0,N  17)    -11.5718         0.001512   
    488. D(C  19,C  18,Co  0,C  12)    -96.2252         0.001512   
    489. D(C  19,C  18,Co  0,C  11)   -126.6611         0.001512   
    490. D(C  19,C  18,Co  0,O  10)    -91.4475         0.001512   
    491. D(C  19,C  18,Co  0,O   9)    174.1172         0.001512   
    492. D(C  19,C  18,Co  0,C   4)     33.7113         0.001512   
    493. D(C  19,C  18,Co  0,C   3)     62.9650         0.001512   
    494. D(C  24,C  18,Co  0,O   2)   -172.6138         0.001512   
    495. D(C  19,C  18,Co  0,O   2)      0.8135         0.001512   
    496. D(C  19,C  18,Co  0,O   1)     86.4678         0.001512   
    497. D(N  17,C  18,Co  0,C  24)   -175.0009         0.001512   
    498. D(C  24,C  18,Co  0,O  10)     95.1252         0.001512   
    499. D(N  17,C  18,Co  0,N  23)   -171.3335         0.001512   
    500. D(N  17,C  18,Co  0,C  12)    -84.6534         0.001512   
    501. D(N  17,C  18,Co  0,C  11)   -115.0893         0.001512   
    502. D(C  24,C  18,Co  0,N  23)      3.6673         0.001512   
    503. D(N  17,C  18,Co  0,O  10)    -79.8757         0.001512   
    504. D(N  17,C  18,Co  0,O   9)   -174.3109         0.001512   
    505. D(N  17,C  18,Co  0,C   4)     45.2831         0.001512   
    506. D(N  17,C  18,Co  0,C   3)     74.5369         0.001512   
    507. D(N  17,C  18,Co  0,O   2)     12.3854         0.001512   
    508. D(N  17,C  18,Co  0,O   1)     98.0397         0.001512   
    509. D(H  37,C  19,C  18,C  24)      2.1550         0.031912   
    510. D(H  37,C  19,C  18,N  17)   -178.6875         0.031912   
    511. D(H  37,C  19,C  18,Co  0)   -170.1228         0.031912   
    512. D(C  20,C  19,C  18,C  24)   -177.8458         0.031912   
    513. D(C  20,C  19,C  18,N  17)      1.3117         0.031912   
    514. D(C  20,C  19,C  18,Co  0)      9.8764         0.031912   
    515. D(H  38,C  20,C  19,H  37)      4.1175         0.024990   
    516. D(H  38,C  20,C  19,C  18)   -175.8817         0.024990   
    517. D(C  21,C  20,C  19,H  37)   -178.4044         0.024990   
    518. D(C  21,C  20,C  19,C  18)      1.5964         0.024990   
    519. D(H  39,C  21,C  20,H  38)     -6.5786         0.026369   
    520. D(H  39,C  21,C  20,C  19)    176.1190         0.026369   
    521. D(C  22,C  21,C  20,H  38)    173.4214         0.026369   
    522. D(C  22,C  21,C  20,C  19)     -3.8810         0.026369   
    523. D(H  40,C  22,C  21,H  39)      3.3409         0.025881   
    524. D(H  40,C  22,C  21,C  20)   -176.6592         0.025881   
    525. D(N  17,C  22,C  21,H  39)   -176.6586         0.025881   
    526. D(N  17,C  22,C  21,C  20)      3.3413         0.025881   
    527. D(H  40,C  22,N  17,C  18)    179.6375         0.035066   
    528. D(H  40,C  22,N  17,Co  0)      2.5067         0.035066   
    529. D(C  21,C  22,N  17,C  18)     -0.3629         0.035066   
    530. D(C  21,C  22,N  17,Co  0)   -177.4938         0.035066   
    531. D(C  28,N  23,Co  0,C  18)   -177.9248         0.005634   
    532. D(C  28,N  23,Co  0,N  17)    178.2584         0.005634   
    533. D(C  28,N  23,Co  0,C  12)     60.3056         0.005634   
    534. D(C  28,N  23,Co  0,O  10)     86.3518         0.005634   
    535. D(C  28,N  23,Co  0,O   9)      0.6081         0.005634   
    536. D(C  28,N  23,Co  0,C   4)    -89.8930         0.005634   
    537. D(C  28,N  23,Co  0,C   3)    -88.7242         0.005634   
    538. D(C  28,N  23,Co  0,O   2)   -140.5417         0.005634   
    539. D(C  28,N  23,Co  0,O   1)    -90.1161         0.005634   
    540. D(C  24,N  23,Co  0,C  18)     -4.1419         0.005634   
    541. D(C  24,N  23,Co  0,N  17)     -7.9587         0.005634   
    542. D(C  24,N  23,Co  0,C  12)   -125.9115         0.005634   
    543. D(C  24,N  23,Co  0,C  11)   -159.2932         0.005634   
    544. D(C  24,N  23,Co  0,O  10)    -99.8653         0.005634   
    545. D(C  24,N  23,Co  0,O   9)    174.3910         0.005634   
    546. D(C  28,N  23,Co  0,C  11)     26.9239         0.005634   
    547. D(C  24,N  23,Co  0,C   4)     83.8899         0.005634   
    548. D(C  24,N  23,Co  0,C   3)     85.0587         0.005634   
    549. D(C  24,N  23,Co  0,O   2)     33.2412         0.005634   
    550. D(C  28,N  23,Co  0,C  24)   -173.7829         0.005634   
    551. D(C  24,N  23,Co  0,O   1)     83.6668         0.005634   
    552. D(C  25,C  24,N  23,Co  0)   -173.1272         0.036453   
    553. D(C  18,C  24,N  23,C  28)   -178.4997         0.036453   
    554. D(C  18,C  24,N  23,Co  0)      7.2519         0.036453   
    555. D(C  25,C  24,C  18,C  19)     -1.5588         0.024058   
    556. D(C  25,C  24,C  18,N  17)    179.2494         0.024058   
    557. D(C  25,C  24,C  18,Co  0)    175.6912         0.024058   
    558. D(N  23,C  24,C  18,C  19)    178.0496         0.024058   
    559. D(N  23,C  24,C  18,N  17)     -1.1421         0.024058   
    560. D(N  23,C  24,C  18,Co  0)     -4.7003         0.024058   
    561. D(Co  0,C  24,C  18,C  19)   -177.2500         0.024058   
    562. D(C  25,C  24,Co  0,N  23)     17.3743         0.001511   
    563. D(C  25,C  24,Co  0,C  18)   -169.5404         0.001511   
    564. D(C  25,C  24,Co  0,N  17)   -172.1876         0.001511   
    565. D(C  25,C  24,Co  0,C  11)     43.6267         0.001511   
    566. D(C  25,C  24,Co  0,O  10)    100.9715         0.001511   
    567. D(C  25,C  24,Co  0,O   9)     10.8546         0.001511   
    568. D(C  25,C  24,Co  0,C   4)   -111.4407         0.001511   
    569. D(C  25,C  24,Co  0,C   3)    -89.9729         0.001511   
    570. D(C  25,C  24,Co  0,O   2)   -156.9086         0.001511   
    571. D(C  25,C  24,Co  0,O   1)    -77.9986         0.001511   
    572. D(N  23,C  24,Co  0,C  18)    173.0853         0.001511   
    573. D(N  23,C  24,Co  0,N  17)    170.4381         0.001511   
    574. D(N  23,C  24,Co  0,C  12)     64.0026         0.001511   
    575. D(N  23,C  24,Co  0,C  11)     26.2524         0.001511   
    576. D(N  23,C  24,Co  0,O  10)     83.5972         0.001511   
    577. D(N  23,C  24,Co  0,O   9)     -6.5197         0.001511   
    578. D(C  25,C  24,Co  0,C  12)     81.3769         0.001511   
    579. D(N  23,C  24,Co  0,C   4)   -128.8150         0.001511   
    580. D(N  23,C  24,Co  0,C   3)   -107.3472         0.001511   
    581. D(N  23,C  24,Co  0,O   2)   -174.2829         0.001511   
    582. D(Co  0,C  24,C  18,N  17)      3.5582         0.024058   
    583. D(N  23,C  24,Co  0,O   1)    -95.3729         0.001511   
    584. D(C  18,C  24,Co  0,N  23)   -173.0853         0.001511   
    585. D(C  18,C  24,Co  0,N  17)     -2.6471         0.001511   
    586. D(C  18,C  24,Co  0,C  12)   -109.0827         0.001511   
    587. D(C  18,C  24,Co  0,C  11)   -146.8329         0.001511   
    588. D(C  18,C  24,Co  0,O  10)    -89.4881         0.001511   
    589. D(C  18,C  24,Co  0,O   9)   -179.6049         0.001511   
    590. D(Co  0,C  24,N  23,C  28)    174.2484         0.036453   
    591. D(C  18,C  24,Co  0,C   4)     58.0997         0.001511   
    592. D(C  18,C  24,Co  0,C   3)     79.5675         0.001511   
    593. D(C  18,C  24,Co  0,O   2)     12.6319         0.001511   
    594. D(C  25,C  24,N  23,C  28)      1.1212         0.036453   
    595. D(C  18,C  24,Co  0,O   1)     91.5419         0.001511   
    596. D(H  41,C  25,C  24,N  23)    177.9667         0.033282   
    597. D(H  41,C  25,C  24,C  18)     -2.4581         0.033282   
    598. D(H  41,C  25,C  24,Co  0)    165.2273         0.033282   
    599. D(C  26,C  25,C  24,N  23)     -2.0347         0.033282   
    600. D(C  26,C  25,C  24,C  18)    177.5405         0.033282   
    601. D(C  26,C  25,C  24,Co  0)    -14.7741         0.033282   
    602. D(H  42,C  26,C  25,H  41)     -0.8959         0.033902   
    603. D(H  42,C  26,C  25,C  24)    179.1055         0.033902   
    604. D(C  27,C  26,C  25,H  41)   -178.6495         0.033902   
    605. D(C  27,C  26,C  25,C  24)      1.3519         0.033902   
    606. D(H  43,C  27,C  26,H  42)      2.6605         0.032992   
    607. D(H  43,C  27,C  26,C  25)   -179.8133         0.032992   
    608. D(C  28,C  27,C  26,H  42)   -177.3397         0.032992   
    609. D(C  28,C  27,C  26,C  25)      0.1865         0.032992   
    610. D(H  44,C  28,C  27,H  43)     -1.1485         0.034166   
    611. D(H  44,C  28,C  27,C  26)    178.8516         0.034166   
    612. D(N  23,C  28,C  27,H  43)    178.8520         0.034166   
    613. D(N  23,C  28,C  27,C  26)     -1.1478         0.034166   
    614. D(H  44,C  28,N  23,C  24)   -179.4986         0.033297   
    615. D(H  44,C  28,N  23,Co  0)     -5.9072         0.033297   
    616. D(C  27,C  28,N  23,C  24)      0.5009         0.033297   
    617. D(C  27,C  28,N  23,Co  0)    174.0922         0.033297   
    -----------------------------------------------------------------

Number of atoms                         .... 45
Number of degrees of freedom            .... 617

         *************************************************************
         *                GEOMETRY OPTIMIZATION CYCLE   1            *
         *************************************************************
---------------------------------
CARTESIAN COORDINATES (ANGSTROEM)
---------------------------------
  Co    22.970830    9.682180   10.812960
  O     23.651460   11.378180   10.376140
  O     21.282180   10.413350   10.656990
  C     22.624060   12.190590   10.036790
  C     21.359600   11.675620   10.167180
  C     20.270220   12.437720    9.789380
  C     20.535620   13.736980    9.287880
  C     21.813510   14.216440    9.187580
  C     22.864600   13.442500    9.567050
  H     19.747820   14.334340    8.991950
  H     21.979500   15.167550    8.823080
  H     25.188730    8.303080    9.200560

----------------------------
CARTESIAN COORDINATES (A.U.)
----------------------------
  NO LB      ZA    FRAG     MASS         X           Y           Z
   0 Co   27.0000    0    58.930   43.408578   18.296669   20.433533
   1 O     8.0000    0    15.999   44.694782   21.501644   19.608063
   2 O     8.0000    0    15.999   40.217492   19.678380   20.138793
   3 C     6.0000    0    12.011   42.753277   23.036877   18.966784
   4 C     6.0000    0    12.011   40.363794   22.063724   19.213186
   5 C     6.0000    0    12.011   38.305164   23.503885   18.499247
   6 C     6.0000    0    12.011   38.806698   25.959130   17.551550
   7 C     6.0000    0    12.011   41.221560   26.865178   17.362010
   8 C     6.0000    0    12.011   43.207832   25.402644   18.079104
   9 O     8.0000    0    15.999   43.271497   17.407704   16.979756
  10 O     8.0000    0    15.999   41.839897   15.120228   21.007519
  11 C     6.0000    0    12.011   41.607045   15.643153   16.682824
  12 C     6.0000    0    12.011   40.736127   14.387562   18.944675
  13 C     6.0000    0    12.011   38.912126   12.441258   18.761447
  14 C     6.0000    0    12.011   37.996308   11.856803   16.452201
  15 C     6.0000    0    12.011   38.893833   13.053680   14.171396
  16 C     6.0000    0    12.011   40.626523   14.896522   14.310386
  17 N     7.0000    0    14.007   43.723085   18.996056   24.052831
  18 C     6.0000    0    12.011   46.034711   18.638123   24.972107
  19 C     6.0000    0    12.011   46.559998   19.233746   27.455094
  20 C     6.0000    0    12.011   44.648654   20.167762   29.028291
  21 C     6.0000    0    12.011   42.226686   20.405452   28.023713
  22 C     6.0000    0    12.011   41.800988   19.865746   25.477533
  23 N     7.0000    0    14.007   46.828850   17.108484   20.944345
  24 C     6.0000    0    12.011   47.823621   17.600645   23.247279
  25 C     6.0000    0    12.011   50.311899   17.111281   23.806411
  26 C     6.0000    0    12.011   51.767214   16.026257   21.983657
  27 C     6.0000    0    12.011   50.785955   15.494942   19.658613
  28 C     6.0000    0    12.011   48.329614   16.062615   19.156324
  29 H     1.0000    0     1.008   36.484111   22.822374   18.649329
  30 H     1.0000    0     1.008   37.317972   27.087977   16.992323
  31 H     1.0000    0     1.008   41.535236   28.662516   16.673205
  32 H     1.0000    0     1.008   45.032590   26.078788   17.951227
  33 H     1.0000    0     1.008   38.297606   11.493012   20.350933
  34 H     1.0000    0     1.008   36.600594   10.501870   16.312853
  35 H     1.0000    0     1.008   38.202779   12.491657   12.436496
  36 H     1.0000    0     1.008   41.246826   15.772902   12.682368
  37 H     1.0000    0     1.008   48.364347   18.990557   28.154009
  38 H     1.0000    0     1.008   45.150206   20.714951   30.864425
  39 H     1.0000    0     1.008   40.749809   20.979683   29.160553
  40 H     1.0000    0     1.008   40.034188   20.129835   24.695243
  41 H     1.0000    0     1.008   51.054580   17.552816   25.554767
  42 H     1.0000    0     1.008   53.761423   15.703152   22.529674
  43 H     1.0000    0     1.008   51.900988   14.667261   18.289355
  44 H     1.0000    0     1.008   47.599801   15.690547   17.386539

--------------------------------
INTERNAL COORDINATES (ANGSTROEM)
--------------------------------
 Co     0   0   0     0.000000000000     0.00000000     0.00000000
 O      1   0   0     1.878958463963     0.00000000     0.00000000
 O      1   2   0     1.846747148989    87.37617366     0.00000000
 C      2   1   3     1.353040720230   108.97875593   353.37578037
 C      3   1   2     1.356183337680   110.29230174     7.52212683
 C      5   3   1     1.382128081764   124.53723715   172.20374427
 C      6   5   3     1.417750315676   117.02990726   180.45308990
 C      7   6   5     1.368555747385   121.45177462   359.74976331
 C      4   2   1     1.358599943802   120.36848046   185.70899028
 O      1   2   3     1.888623335554    90.78869620    88.91784560
 O      1   2   3     1.899148601268   173.94049813    39.58568728
 C     10   1   2     1.293208644651   108.88019860   203.78409876
 C     11   1   3     1.297340573751   109.07002080    68.07066805
 C     13  11   1     1.414859460724   125.61602556   195.25538928
 C     14  13  11     1.350483008149   118.26385472   181.92210129
 C     15  14  13     1.443416327537   122.55121801     3.03388021
 C     16  15  14     1.340563593643   119.89273656   357.11066451
 N      1   2   3     1.957767993762    91.49001351   265.15643229
 C     18   1   2     1.329994175664   114.14725601   278.20771049
 C     19  18   1     1.379510920798   120.07712300   175.39883326
 C     20  19  18     1.400128590952   120.09405347     1.31166183
 C     21  20  19     1.393214230081   118.00448250     1.59638633
 C     18   1   2     1.347127036214   123.22256997    95.55820999
 N      1   2   3     1.935007296782    89.25239945   184.08213962
 C     24   1   2     1.352800309469   115.29374191    83.66675664
 C     25  24   1     1.374194121513   122.04192564   186.87280088
 C     26  25  24     1.361297908946   117.96900105   357.96525278
 C     27  26  25     1.364722544256   120.69331545     1.35188755
 C     24   1   2     1.353613491289   125.73168224   269.88385521
 H      6   5   3     1.031992898038   121.48489628     0.45327644
 H      7   6   5     1.032008902336   119.27405390   179.75005530
 H      8   7   6     1.031999594089   119.93074363   180.27594345
 H      9   4   2     1.031999056831   120.51824554   357.56549696
 H     14  13  11     1.032000288081   120.86793626     1.92167632
 H     15  14  13     1.032001455425   118.72411056   183.03408003
 H     16  15  14     1.032005043156   120.05358020   177.11089523
 H     17  16  15     1.031998488468   119.91074147   181.01177064
 H     20  19  18     1.032003571215   119.95261629   181.31245128
 H     21  20  19     1.048032323595   117.76449422   184.11832475
 H     22  21  20     1.032006126871   120.05342022   176.11897345
 H     23  18   1     1.032004227656   120.38434744     2.50669358
 H     26  25  24     1.032000832703   121.01508025   177.96666672
 H     27  26  25     1.107410252842   114.79334901   179.10554699
 H     28  27  26     1.031993420037   120.19080118   180.18670582
 H     29  24   1     1.031990577961   119.52411886   354.09277944

---------------------------
INTERNAL COORDINATES (A.U.)
---------------------------
 Co     0   0   0     0.000000000000     0.00000000     0.00000000
 O      1   0   0     3.550716913904     0.00000000     0.00000000
 O      1   2   0     3.489846350190    87.37617366     0.00000000
 C      2   1   3     2.556876409278   108.97875593   353.37578037
 C      3   1   2     2.562815095602   110.29230174     7.52212683
 C      5   3   1     2.611843556535   124.53723715   172.20374427
 C      6   5   3     2.679159822908   117.02990726   180.45308990
 C      7   6   5     2.586195561561   121.45177462   359.74976331
 C      4   2   1     2.567381819347   120.36848046   185.70899028
 O      1   2   3     3.568980874330    90.78869620    88.91784560
 O      1   2   3     3.588870744017   173.94049813    39.58568728
 C     10   1   2     2.443810172410   108.88019860   203.78409876
 C     11   1   3     2.451618386813   109.07002080    68.07066805
 C     13  11   1     2.673696898756   125.61602556   195.25538928
 C     14  13  11     2.552043033916   118.26385472   181.92210129
 C     15  14  13     2.727661556275   122.55121801     3.03388021
 C     16  15  14     2.533298057090   119.89273656   357.11066451
 N      1   2   3     3.699645341967    91.49001351   265.15643229
 C     18   1   2     2.513324751715   114.14725601   278.20771049
 C     19  18   1     2.606897839061   120.07712300   175.39883326
 C     20  19  18     2.645859589171   120.09405347     1.31166183
 C     21  20  19     2.632793340735   118.00448250     1.59638633
 C     18   1   2     2.545701166046   123.22256997    95.55820999
 N      1   2   3     3.656633858057    89.25239945   184.08213962
 C     24   1   2     2.556422098781   115.29374191    83.66675664
 C     25  24   1     2.596850544503   122.04192564   186.87280088
 C     26  25  24     2.572480234587   117.96900105   357.96525278
 C     27  26  25     2.578951857432   120.69331545     1.35188755
 C     24   1   2     2.557958789717   125.73168224   269.88385521
 H      6   5   3     1.950183949443   121.48489628     0.45327644
 H      7   6   5     1.950214193183   119.27405390   179.75005530
 H      8   7   6     1.950196603146   119.93074363   180.27594345
 H      9   4   2     1.950195587876   120.51824554   357.56549696
 H     14  13  11     1.950197914602   120.86793626     1.92167632
 H     15  14  13     1.950200120562   118.72411056   183.03408003
 H     16  15  14     1.950206900391   120.05358020   177.11089523
 H     17  16  15     1.950194513825   119.91074147   181.01177064
 H     20  19  18     1.950204118825   119.95261629   181.31245128
 H     21  20  19     1.980494071092   117.76449422   184.11832475
 H     22  21  20     1.950208948316   120.05342022   176.11897345
 H     23  18   1     1.950205359319   120.38434744     2.50669358
 H     26  25  24     1.950198943788   121.01508025   177.96666672
 H     27  26  25     2.092702095768   114.79334901   179.10554699
 H     28  27  26     1.950184935879   120.19080118   180.18670582
 H     29  24   1     1.950179565133   119.52411886   354.09277944

---------------------
BASIS SET INFORMATION
---------------------
There are 5 groups of distinct atoms

 Group   1 Type Co  : 14s9p5d1f contracted to 5s3p2d1f pattern {63311/531/41/1}
 Group   2 Type O   : 8s4p1d contracted to 4s2p1d pattern {5111/31/1}
 Group   3 Type C   : 8s4p1d contracted to 4s2p1d pattern {5111/31/1}
 Group   4 Type N   : 8s4p1d contracted to 4s2p1d pattern {5111/31/1}
 Group   5 Type H   : 4s contracted to 2s pattern {31}

Atom   0Co   basis set group =>   1
Atom   1O    basis set group =>   2
Atom   2O    basis set group =>   2
Atom   3C    basis set group =>   3
Atom   4C    basis set group =>   3
Atom   5C    basis set group =>   3
Atom   6C    basis set group =>   3
Atom   7C    basis set group =>   3
Atom   8C    basis set group =>   3
Atom   9O    basis set group =>   2
Atom  10O    basis set group =>   2
Atom  11C    basis set group =>   3
Atom  12C    basis set group =>   3
Atom  13C    basis set group =>   3
Atom  14C    basis set group =>   3
Atom  15C    basis set group =>   3
Atom  16C    basis set group =>   3
Atom  17N    basis set group =>   4
Atom  18C    basis set group =>   3
Atom  19C    basis set group =>   3
Atom  20C    basis set group =>   3
Atom  21C    basis set group =>   3
Atom  22C    basis set group =>   3
Atom  23N    basis set group =>   4
Atom  24C    basis set group =>   3
Atom  25C    basis set group =>   3
Atom  26C    basis set group =>   3
Atom  27C    basis set group =>   3
Atom  28C    basis set group =>   3
Atom  29H    basis set group =>   5
Atom  30H    basis set group =>   5
Atom  31H    basis set group =>   5
Atom  32H    basis set group =>   5
Atom  33H    basis set group =>   5
Atom  34H    basis set group =>   5
Atom  35H    basis set group =>   5
Atom  36H    basis set group =>   5
Atom  37H    basis set group =>   5
Atom  38H    basis set group =>   5
Atom  39H    basis set group =>   5
Atom  40H    basis set group =>   5
Atom  41H    basis set group =>   5
Atom  42H    basis set group =>   5
Atom  43H    basis set group =>   5
Atom  44H    basis set group =>   5
---------------------------------
AUXILIARY/J BASIS SET INFORMATION
---------------------------------
There are 5 groups of distinct atoms

 Group   1 Type Co  : 19s5p5d3f3g contracted to 8s5p5d2f3g pattern {121111111/11111/11111/21/111}
 Group   2 Type O   : 12s5p4d2f1g contracted to 6s4p3d1f1g pattern {711111/2111/211/2/1}
 Group   3 Type C   : 12s5p4d2f1g contracted to 6s4p3d1f1g pattern {711111/2111/211/2/1}
 Group   4 Type N   : 12s5p4d2f1g contracted to 6s4p3d1f1g pattern {711111/2111/211/2/1}
 Group   5 Type H   : 5s2p1d contracted to 3s1p1d pattern {311/2/1}

Atom   0Co   basis set group =>   1
Atom   1O    basis set group =>   2
Atom   2O    basis set group =>   2
Atom   3C    basis set group =>   3
Atom   4C    basis set group =>   3
Atom   5C    basis set group =>   3
Atom   6C    basis set group =>   3
Atom   7C    basis set group =>   3
Atom   8C    basis set group =>   3
Atom   9O    basis set group =>   2
Atom  10O    basis set group =>   2
Atom  11C    basis set group =>   3
Atom  12C    basis set group =>   3
Atom  13C    basis set group =>   3
Atom  14C    basis set group =>   3
Atom  15C    basis set group =>   3
Atom  16C    basis set group =>   3
Atom  17N    basis set group =>   4
Atom  18C    basis set group =>   3
Atom  19C    basis set group =>   3
Atom  20C    basis set group =>   3
Atom  21C    basis set group =>   3
Atom  22C    basis set group =>   3
Atom  23N    basis set group =>   4
Atom  24C    basis set group =>   3
Atom  25C    basis set group =>   3
Atom  26C    basis set group =>   3
Atom  27C    basis set group =>   3
Atom  28C    basis set group =>   3
Atom  29H    basis set group =>   5
Atom  30H    basis set group =>   5
Atom  31H    basis set group =>   5
Atom  32H    basis set group =>   5
Atom  33H    basis set group =>   5
Atom  34H    basis set group =>   5
Atom  35H    basis set group =>   5
Atom  36H    basis set group =>   5
Atom  37H    basis set group =>   5
Atom  38H    basis set group =>   5
Atom  39H    basis set group =>   5
Atom  40H    basis set group =>   5
Atom  41H    basis set group =>   5
Atom  42H    basis set group =>   5
Atom  43H    basis set group =>   5
Atom  44H    basis set group =>   5


           ************************************************************
           *        Program running with 12 parallel MPI-processes    *
           *              working on a common directory               *
           ************************************************************
------------------------------------------------------------------------------
                           ORCA GTO INTEGRAL CALCULATION
                           -- RI-GTO INTEGRALS CHOSEN --
------------------------------------------------------------------------------
------------------------------------------------------------------------------
                   ___                                                        
                  /   \      - P O W E R E D   B Y -                         
                 /     \                                                     
                 |  |  |   _    _      __       _____    __    __             
                 |  |  |  | |  | |    /  \     |  _  \  |  |  /  |          
                  \  \/   | |  | |   /    \    | | | |  |  | /  /          
                 / \  \   | |__| |  /  /\  \   | |_| |  |  |/  /          
                |  |  |   |  __  | /  /__\  \  |    /   |      \           
                |  |  |   | |  | | |   __   |  |    \   |  |\   \          
                \     /   | |  | | |  |  |  |  | |\  \  |  | \   \       
                 \___/    |_|  |_| |__|  |__|  |_| \__\ |__|  \__/        
                                                                              
                      - O R C A' S   B I G   F R I E N D -                    
                                      &                                       
                       - I N T E G R A L  F E E D E R -                       
                                                                              
 v1 FN, 2020, v2 2021                                                         
------------------------------------------------------------------------------


Reading SHARK input file LowT.SHARKINP.tmp ... ok
----------------------
SHARK INTEGRAL PACKAGE
----------------------

Number of atoms                             ...     45
Number of basis functions                   ...    483
Number of shells                            ...    239
Maximum angular momentum                    ...      3
Integral batch strategy                     ... SHARK/LIBINT Hybrid
RI-J (if used) integral strategy            ... SPLIT-RIJ (Revised 2003 algorithm where possible)
Printlevel                                  ...      1
Contraction scheme used                     ... SEGMENTED contraction
Coulomb Range Separation                    ... NOT USED
Exchange Range Separation                   ... NOT USED
Finite Nucleus Model                        ... NOT USED
Auxiliary Coulomb fitting basis             ... AVAILABLE
   # of basis functions in Aux-J            ...   1637
   # of shells in Aux-J                     ...    523
   Maximum angular momentum in Aux-J        ...      4
Auxiliary J/K fitting basis                 ... NOT available
Auxiliary Correlation fitting basis         ... NOT available
Auxiliary 'external' fitting basis          ... NOT available
Integral threshold                          ...     2.500000e-11
Primitive cut-off                           ...     2.500000e-12
Primitive pair pre-selection threshold      ...     2.500000e-12

Calculating pre-screening integrals         ... done (  0.0 sec) Dimension = 239
Organizing shell pair data                  ... done (  0.1 sec)
Shell pair information
Total number of shell pairs                 ...     28680
Shell pairs after pre-screening             ...     18089
Total number of primitive shell pairs       ...    105105
Primitive shell pairs kept                  ...     40059
          la=0 lb=0:   5862 shell pairs
          la=1 lb=0:   6455 shell pairs
          la=1 lb=1:   1572 shell pairs
          la=2 lb=0:   2395 shell pairs
          la=2 lb=1:   1369 shell pairs
          la=2 lb=2:    272 shell pairs
          la=3 lb=0:     89 shell pairs
          la=3 lb=1:     53 shell pairs
          la=3 lb=2:     21 shell pairs
          la=3 lb=3:      1 shell pairs

Calculating one electron integrals          ... done (  0.0 sec)
Calculating RI/J V-Matrix + Cholesky decomp.... done (  0.2 sec)
Calculating Nuclear repulsion               ... done (  0.0 sec) ENN=   3448.923478860080 Eh

SHARK setup successfully completed in   0.5 seconds

Maximum memory used throughout the entire GTOINT-calculation: 30.3 MB


           ************************************************************
           *        Program running with 12 parallel MPI-processes    *
           *              working on a common directory               *
           ************************************************************
-------------------------------------------------------------------------------
                                 ORCA SCF
-------------------------------------------------------------------------------

------------
SCF SETTINGS
------------
Hamiltonian:
 Density Functional     Method          .... DFT(GTOs)
 Exchange Functional    Exchange        .... PBE
   PBE kappa parameter   XKappa         ....  1.024500
   PBE mue parameter    XMuePBE         ....  0.123457
 Correlation Functional Correlation     .... PBE
   PBE beta parameter  CBetaPBE         ....  0.030000
 LDA part of GGA corr.  LDAOpt          .... PW91-LDA
 Gradients option       PostSCFGGA      .... off
 Hybrid DFT is turned on
   Fraction HF Exchange ScalHFX         ....  0.420000
   Scaling of DF-GGA-X  ScalDFX         ....  0.580000
   Scaling of DF-GGA-C  ScalDFC         ....  1.000000
   Scaling of DF-LDA-C  ScalLDAC        ....  1.000000
   Perturbative correction              ....  0.000000
   Density functional embedding theory  .... OFF
 RI-approximation to the Coulomb term is turned on
   Number of AuxJ basis functions       .... 1637
   RIJ-ON(X) (HFX calculated with O(N)) .... on
   Number of AuxJ basis functions       .... 1637
   RIJ-COSX (HFX calculated with COS-X)).... on


General Settings:
 Integral files         IntName         .... LowT
 Hartree-Fock type      HFTyp           .... UHF
 Total Charge           Charge          ....    0
 Multiplicity           Mult            ....    2
 Number of Electrons    NEL             ....  221
 Basis Dimension        Dim             ....  483
 Nuclear Repulsion      ENuc            ....   3448.9234788601 Eh

Convergence Acceleration:
 DIIS                   CNVDIIS         .... on
   Start iteration      DIISMaxIt       ....    12
   Startup error        DIISStart       ....  0.200000
   # of expansion vecs  DIISMaxEq       ....     5
   Bias factor          DIISBfac        ....   1.050
   Max. coefficient     DIISMaxC        ....  10.000
 Trust-Rad. Augm. Hess. CNVTRAH         .... auto
   Auto Start mean grad. ratio tolernc. ....  1.125000
   Auto Start start iteration           ....    20
   Auto Start num. interpolation iter.  ....    10
   Max. Number of Micro iterations      ....    16
   Max. Number of Macro iterations      .... Maxiter - #DIIS iter
   Number of Davidson start vectors     ....     2
   Converg. threshold I  (grad. norm)   ....   1.000e-05
   Converg. threshold II (energy diff.) ....   1.000e-08
   Grad. Scal. Fac. for Micro threshold ....   0.100
   Minimum threshold for Micro iter.    ....   0.010
   NR start threshold (gradient norm)   ....   0.001
   Initial trust radius                 ....   0.400
   Minimum AH scaling param. (alpha)    ....   1.000
   Maximum AH scaling param. (alpha)    .... 1000.000
   Orbital update algorithm             .... Taylor
   White noise on init. David. guess    .... on
   Maximum white noise                  ....   0.010
   Quad. conv. algorithm                .... NR
   COSX micro iterations for RIJONX calc.... off
 SOSCF                  CNVSOSCF        .... off
 Level Shifting         CNVShift        .... on
   Level shift para.    LevelShift      ....    0.2500
   Turn off err/grad.   ShiftErr        ....    0.0010
 Zerner damping         CNVZerner       .... off
 Static damping         CNVDamp         .... on
   Fraction old density DampFac         ....    0.7000
   Max. Damping (<1)    DampMax         ....    0.9800
   Min. Damping (>=0)   DampMin         ....    0.0000
   Turn off err/grad.   DampErr         ....    0.1000
 Fernandez-Rico         CNVRico         .... off

SCF Procedure:
 Maximum # iterations   MaxIter         ....   900
[...]
      px      :     0.000396
      py      :     0.000534
      dz2     :     0.000004  d :     0.000007
      dxz     :     0.000007
      dyz     :    -0.000019
      dx2y2   :    -0.000003
      dxy     :     0.000019
  2 O s       :     0.000185  s :     0.000185
      pz      :     0.000394  p :     0.000573
      px      :    -0.001276
      py      :     0.001455
      dz2     :    -0.000007  d :    -0.000053
      dxz     :    -0.000011
      dyz     :    -0.000021
      dx2y2   :    -0.000047
      dxy     :     0.000032
  3 C s       :     0.000063  s :     0.000063
      pz      :     0.000441  p :     0.000384
      px      :    -0.000158
      py      :     0.000102
      dz2     :     0.000004  d :    -0.000004
      dxz     :    -0.000001
      dyz     :    -0.000014
      dx2y2   :     0.000001
      dxy     :     0.000006
  4 C s       :    -0.000009  s :    -0.000009
      pz      :     0.000043  p :     0.000097
      px      :    -0.000024
      py      :     0.000077
      dz2     :     0.000000  d :     0.000063
      dxz     :     0.000016
      dyz     :     0.000042
      dx2y2   :     0.000022
      dxy     :    -0.000017
  5 C s       :     0.000024  s :     0.000024
      pz      :     0.000570  p :     0.000636
      px      :     0.000044
      py      :     0.000023
      dz2     :     0.000003  d :     0.000011
      dxz     :    -0.000000
      dyz     :     0.000003
      dx2y2   :     0.000006
      dxy     :    -0.000001
  6 C s       :     0.000015  s :     0.000015
      pz      :     0.000316  p :     0.000361
      px      :    -0.000007
      py      :     0.000053
      dz2     :     0.000001  d :     0.000029
      dxz     :     0.000009
      dyz     :     0.000014
      dx2y2   :     0.000000
      dxy     :     0.000005
  7 C s       :     0.000022  s :     0.000022
      pz      :     0.000662  p :     0.000738
      px      :    -0.000000
      py      :     0.000077
      dz2     :    -0.000002  d :     0.000009
      dxz     :     0.000014
      dyz     :     0.000000
      dx2y2   :    -0.000002
      dxy     :    -0.000001
  8 C s       :    -0.000014  s :    -0.000014
      pz      :     0.000215  p :     0.000110
      px      :    -0.000001
      py      :    -0.000105
      dz2     :     0.000006  d :     0.000018
      dxz     :     0.000003
      dyz     :     0.000013
      dx2y2   :     0.000004
      dxy     :    -0.000008
  9 O s       :     0.005880  s :     0.005880
      pz      :     0.009798  p :     0.223837
      px      :     0.142274
      py      :     0.071765
      dz2     :    -0.000136  d :     0.001046
      dxz     :     0.000001
      dyz     :    -0.000104
      dx2y2   :     0.001082
      dxy     :     0.000203
 10 O s       :     0.005988  s :     0.005988
      pz      :     0.002914  p :     0.229548
      px      :     0.161039
      py      :     0.065595
      dz2     :     0.000020  d :     0.000847
      dxz     :     0.000274
      dyz     :     0.000060
      dx2y2   :     0.000464
      dxy     :     0.000028
 11 C s       :     0.002679  s :     0.002679
      pz      :     0.000139  p :     0.135177
      px      :     0.093088
      py      :     0.041950
      dz2     :    -0.000495  d :     0.010478
      dxz     :     0.000052
      dyz     :     0.000091
      dx2y2   :     0.008983
      dxy     :     0.001847
 12 C s       :     0.002117  s :     0.002117
      pz      :    -0.002180  p :     0.124049
      px      :     0.089120
      py      :     0.037110
      dz2     :     0.000257  d :     0.011135
      dxz     :     0.006429
      dyz     :     0.002927
      dx2y2   :     0.001626
      dxy     :    -0.000104
 13 C s       :    -0.001172  s :    -0.001172
      pz      :    -0.000459  p :     0.009952
      px      :     0.007469
      py      :     0.002942
      dz2     :     0.000274  d :     0.004113
      dxz     :     0.000484
      dyz     :     0.000319
      dx2y2   :     0.002621
      dxy     :     0.000414
 14 C s       :     0.003351  s :     0.003351
      pz      :     0.000595  p :     0.107291
      px      :     0.073490
      py      :     0.033206
      dz2     :    -0.000072  d :     0.001941
      dxz     :     0.001683
      dyz     :     0.000756
      dx2y2   :    -0.000151
      dxy     :    -0.000274
 15 C s       :     0.003854  s :     0.003854
      pz      :     0.001217  p :     0.117794
      px      :     0.080684
      py      :     0.035894
      dz2     :    -0.000287  d :     0.001508
      dxz     :     0.000470
      dyz     :     0.000129
      dx2y2   :     0.001116
      dxy     :     0.000081
 16 C s       :    -0.001598  s :    -0.001598
      pz      :    -0.002315  p :    -0.000773
      px      :     0.001201
      py      :     0.000341
      dz2     :    -0.000056  d :     0.004578
      dxz     :     0.001025
      dyz     :     0.000728
      dx2y2   :     0.002383
      dxy     :     0.000499
 17 N s       :    -0.000897  s :    -0.000897
      pz      :    -0.001984  p :    -0.002806
      px      :    -0.000210
      py      :    -0.000611
      dz2     :     0.000004  d :     0.000046
      dxz     :     0.000076
      dyz     :    -0.000067
      dx2y2   :     0.000021
      dxy     :     0.000011
 18 C s       :     0.000064  s :     0.000064
      pz      :     0.000076  p :     0.000824
      px      :     0.000440
      py      :     0.000308
      dz2     :    -0.000003  d :    -0.000084
      dxz     :    -0.000043
      dyz     :    -0.000007
      dx2y2   :    -0.000008
      dxy     :    -0.000022
 19 C s       :    -0.000013  s :    -0.000013
      pz      :    -0.000045  p :    -0.000369
      px      :    -0.000074
      py      :    -0.000250
      dz2     :     0.000004  d :     0.000025
      dxz     :     0.000016
      dyz     :     0.000003
      dx2y2   :     0.000001
      dxy     :     0.000001
 20 C s       :     0.000010  s :     0.000010
      pz      :     0.000030  p :     0.000381
      px      :     0.000058
      py      :     0.000293
      dz2     :     0.000000  d :    -0.000016
      dxz     :    -0.000002
      dyz     :    -0.000002
      dx2y2   :    -0.000005
      dxy     :    -0.000006
 21 C s       :    -0.000048  s :    -0.000048
      pz      :    -0.000104  p :    -0.000451
      px      :    -0.000064
      py      :    -0.000283
      dz2     :     0.000001  d :    -0.000005
      dxz     :    -0.000013
      dyz     :     0.000003
      dx2y2   :     0.000002
      dxy     :    -0.000000
 22 C s       :    -0.000001  s :    -0.000001
      pz      :    -0.000024  p :     0.000258
      px      :    -0.000007
      py      :     0.000289
      dz2     :    -0.000060  d :    -0.000131
      dxz     :    -0.000018
      dyz     :    -0.000026
      dx2y2   :    -0.000023
      dxy     :    -0.000004
 23 N s       :     0.001795  s :     0.001795
      pz      :     0.000392  p :     0.004894
      px      :     0.003315
      py      :     0.001187
      dz2     :    -0.000011  d :    -0.000079
      dxz     :    -0.000076
      dyz     :    -0.000013
      dx2y2   :    -0.000033
      dxy     :     0.000053
 24 C s       :    -0.000072  s :    -0.000072
      pz      :    -0.000286  p :    -0.000914
      px      :    -0.000153
      py      :    -0.000475
      dz2     :     0.000014  d :     0.000151
      dxz     :     0.000079
      dyz     :     0.000037
      dx2y2   :     0.000012
      dxy     :     0.000008
 25 C s       :     0.000030  s :     0.000030
      pz      :     0.000052  p :     0.000577
      px      :     0.000165
      py      :     0.000360
      dz2     :    -0.000002  d :    -0.000027
      dxz     :    -0.000006
      dyz     :    -0.000003
      dx2y2   :    -0.000010
      dxy     :    -0.000007
 26 C s       :    -0.000015  s :    -0.000015
      pz      :    -0.000026  p :    -0.000575
      px      :    -0.000089
      py      :    -0.000460
      dz2     :     0.000003  d :     0.000022
      dxz     :     0.000005
      dyz     :     0.000010
      dx2y2   :     0.000002
      dxy     :     0.000003
 27 C s       :     0.000040  s :     0.000040
      pz      :     0.000045  p :     0.000584
      px      :     0.000110
      py      :     0.000429
      dz2     :    -0.000004  d :     0.000010
      dxz     :     0.000026
      dyz     :    -0.000006
      dx2y2   :    -0.000003
      dxy     :    -0.000003
 28 C s       :    -0.000060  s :    -0.000060
      pz      :     0.000109  p :    -0.000158
      px      :    -0.000009
      py      :    -0.000259
      dz2     :     0.000057  d :     0.000146
      dxz     :     0.000040
      dyz     :     0.000008
      dx2y2   :     0.000018
      dxy     :     0.000024
 29 H s       :    -0.000029  s :    -0.000029
 30 H s       :    -0.000001  s :    -0.000001
 31 H s       :    -0.000033  s :    -0.000033
 32 H s       :    -0.000019  s :    -0.000019
 33 H s       :    -0.000767  s :    -0.000767
 34 H s       :    -0.003879  s :    -0.003879
 35 H s       :    -0.004247  s :    -0.004247
 36 H s       :    -0.000416  s :    -0.000416
 37 H s       :     0.000028  s :     0.000028
 38 H s       :    -0.000012  s :    -0.000012
 39 H s       :    -0.000052  s :    -0.000052
 40 H s       :    -0.000154  s :    -0.000154
 41 H s       :    -0.000010  s :    -0.000010
 42 H s       :     0.000014  s :     0.000014
 43 H s       :     0.000085  s :     0.000085
 44 H s       :     0.000293  s :     0.000293


                      *****************************
                      * MAYER POPULATION ANALYSIS *
                      *****************************

  NA   - Mulliken gross atomic population
  ZA   - Total nuclear charge
  QA   - Mulliken gross atomic charge
  VA   - Mayer's total valence
  BVA  - Mayer's bonded valence
  FA   - Mayer's free valence

  ATOM       NA         ZA         QA         VA         BVA        FA
  0 Co    26.2422    27.0000     0.7578     3.8067     3.7943     0.0123
  1 O      8.5788     8.0000    -0.5788     2.0673     2.0673     0.0000
  2 O      8.5887     8.0000    -0.5887     2.0602     2.0601     0.0001
  3 C      5.6307     6.0000     0.3693     3.7475     3.7475     0.0000
  4 C      5.6898     6.0000     0.3102     3.7828     3.7828     0.0000
  5 C      6.3477     6.0000    -0.3477     3.8261     3.8261     0.0000
  6 C      6.2409     6.0000    -0.2409     3.8480     3.8480     0.0000
  7 C      6.2355     6.0000    -0.2355     3.8482     3.8482     0.0000
  8 C      6.3509     6.0000    -0.3509     3.8225     3.8225     0.0000
  9 O      8.4693     8.0000    -0.4693     2.2135     2.1636     0.0499
 10 O      8.4778     8.0000    -0.4778     2.2044     2.1499     0.0545
 11 C      5.6366     6.0000     0.3634     3.7915     3.7648     0.0267
 12 C      5.6138     6.0000     0.3862     3.7847     3.7620     0.0227
 13 C      6.3276     6.0000    -0.3276     3.7819     3.7810     0.0009
 14 C      6.2135     6.0000    -0.2135     3.8061     3.7929     0.0132
 15 C      6.2198     6.0000    -0.2198     3.8074     3.7917     0.0158
 16 C      6.3203     6.0000    -0.3203     3.7762     3.7753     0.0008
 17 N      7.5392     7.0000    -0.5392     3.2782     3.2781     0.0000
 18 C      5.5652     6.0000     0.4348     3.5684     3.5684     0.0000
 19 C      6.3582     6.0000    -0.3582     3.7892     3.7892     0.0000
 20 C      6.0907     6.0000    -0.0907     3.7164     3.7164     0.0000
 21 C      6.3147     6.0000    -0.3147     3.7907     3.7907     0.0000
 22 C      5.9554     6.0000     0.0446     3.7029     3.7029     0.0000
 23 N      7.5380     7.0000    -0.5380     3.2591     3.2590     0.0000
 24 C      5.5754     6.0000     0.4246     3.5834     3.5834     0.0000
 25 C      6.3533     6.0000    -0.3533     3.7861     3.7861     0.0000
 26 C      6.0935     6.0000    -0.0935     3.7195     3.7195     0.0000
 27 C      6.3160     6.0000    -0.3160     3.8019     3.8019     0.0000
 28 C      5.9567     6.0000     0.0433     3.7380     3.7380     0.0000
 29 H      0.7987     1.0000     0.2013     0.9211     0.9211     0.0000
 30 H      0.8121     1.0000     0.1879     0.9217     0.9217     0.0000
 31 H      0.8121     1.0000     0.1879     0.9216     0.9216     0.0000
 32 H      0.8011     1.0000     0.1989     0.9230     0.9230     0.0000
 33 H      0.7613     1.0000     0.2387     0.9104     0.9104     0.0000
 34 H      0.7709     1.0000     0.2291     0.9088     0.9087     0.0001
 35 H      0.7693     1.0000     0.2307     0.9084     0.9083     0.0001
 36 H      0.7524     1.0000     0.2476     0.9061     0.9061     0.0000
 37 H      0.7666     1.0000     0.2334     0.9203     0.9203     0.0000
 38 H      0.7481     1.0000     0.2519     0.8985     0.8985     0.0000
 39 H      0.7429     1.0000     0.2571     0.9059     0.9059     0.0000
 40 H      0.6706     1.0000     0.3294     0.8721     0.8721     0.0000
 41 H      0.7636     1.0000     0.2364     0.9192     0.9192    -0.0000
 42 H      0.7464     1.0000     0.2536     0.8979     0.8979     0.0000
 43 H      0.7446     1.0000     0.2554     0.9064     0.9064     0.0000
 44 H      0.6991     1.0000     0.3009     0.8825     0.8825     0.0000

  Mayer bond orders larger than 0.100000
B(  0-Co,  1-O ) :   0.8035 B(  0-Co,  2-O ) :   0.7845 B(  0-Co,  9-O ) :   0.5553 
B(  0-Co, 10-O ) :   0.5244 B(  0-Co, 17-N ) :   0.4884 B(  0-Co, 23-N ) :   0.4365 
B(  1-O ,  3-C ) :   1.0608 B(  2-O ,  4-C ) :   1.0421 B(  3-C ,  4-C ) :   1.2258 
B(  3-C ,  8-C ) :   1.3903 B(  4-C ,  5-C ) :   1.4050 B(  5-C ,  6-C ) :   1.3934 
B(  5-C , 29-H ) :   0.9214 B(  6-C ,  7-C ) :   1.4659 B(  6-C , 30-H ) :   0.9278 
B(  7-C ,  8-C ) :   1.3971 B(  7-C , 31-H ) :   0.9279 B(  8-C , 32-H ) :   0.9218 
B(  9-O , 11-C ) :   1.3760 B( 10-O , 12-C ) :   1.4021 B( 11-C , 12-C ) :   1.0820 
B( 11-C , 16-C ) :   1.2289 B( 12-C , 13-C ) :   1.2225 B( 13-C , 14-C ) :   1.5590 
B( 13-C , 33-H ) :   0.9127 B( 14-C , 15-C ) :   1.2616 B( 14-C , 34-H ) :   0.9173 
B( 15-C , 16-C ) :   1.5527 B( 15-C , 35-H ) :   0.9168 B( 16-C , 36-H ) :   0.9097 
B( 17-N , 18-C ) :   1.2099 B( 17-N , 22-C ) :   1.4036 B( 18-C , 19-C ) :   1.3539 
B( 18-C , 24-C ) :   1.0087 B( 19-C , 20-C ) :   1.3980 B( 19-C , 37-H ) :   0.9194 
B( 20-C , 21-C ) :   1.4036 B( 20-C , 38-H ) :   0.9114 B( 21-C , 22-C ) :   1.3520 
B( 21-C , 39-H ) :   0.9100 B( 22-C , 40-H ) :   0.8482 B( 23-N , 24-C ) :   1.2262 
B( 23-N , 28-C ) :   1.4147 B( 24-C , 25-C ) :   1.3476 B( 25-C , 26-C ) :   1.4075 
B( 25-C , 41-H ) :   0.9181 B( 26-C , 27-C ) :   1.3967 B( 26-C , 42-H ) :   0.9106 
B( 27-C , 28-C ) :   1.3724 B( 27-C , 43-H ) :   0.9094 B( 28-C , 44-H ) :   0.8730 


-------
TIMINGS
-------

Total SCF time: 0 days 0 hours 0 min 50 sec 

Total time                  ....      50.774 sec
Sum of individual times     ....      50.071 sec  ( 98.6%)

Fock matrix formation       ....      45.734 sec  ( 90.1%)
  Split-RI-J                ....       3.649 sec  (  8.0% of F)
  Chain of spheres X        ....      39.890 sec  ( 87.2% of F)
  XC integration            ....       2.003 sec  (  4.4% of F)
    Basis function eval.    ....       0.476 sec  ( 23.8% of XC)
    Density eval.           ....       0.789 sec  ( 39.4% of XC)
    XC-Functional eval.     ....       0.094 sec  (  4.7% of XC)
    XC-Potential eval.      ....       0.286 sec  ( 14.3% of XC)
Diagonalization             ....       1.456 sec  (  2.9%)
Density matrix formation    ....       0.048 sec  (  0.1%)
Population analysis         ....       0.157 sec  (  0.3%)
Initial guess               ....       0.194 sec  (  0.4%)
Orbital Transformation      ....       0.000 sec  (  0.0%)
Orbital Orthonormalization  ....       0.162 sec  (  0.3%)
DIIS solution               ....       0.577 sec  (  1.1%)
Grid generation             ....       1.905 sec  (  3.8%)

Maximum memory used throughout the entire SCF-calculation: 122.4 MB


-------------------------------------------------------------------------------
                          DFT DISPERSION CORRECTION                            
                                                                               
                              DFTD3 V3.1  Rev 1                                
                          USING Becke-Johnson damping                          
-------------------------------------------------------------------------------
The PBEh-3c composite method is recognized
Using three-body term ABC
Active option DFTDOPT                   ...         4   

molecular C6(AA) [au] = 28539.287277 


            DFT-D V3
 parameters
 s6 scaling factor         :     1.0000 
 a1 scaling factor         :     0.4860 
 s8 scaling factor         :     0.0000 
 a2 scaling factor         :     4.5000 
 Damping factor alpha9(ATM):    16.0000 
 ad hoc parameters k1-k3   :    16.0000     1.3333    -4.0000 

 Edisp/kcal,au: -23.547272127020  -0.037524962711 
 E6   /kcal   : -23.730759120 
 E8   /kcal   :  -0.000000000 
 E6(ABC)      :   0.183486993 
 % E8         :   0.000000000 
 % E6(ABC)    :  -0.779228236 

-------------------------   ----------------
Dispersion correction           -0.037524963
-------------------------   ----------------

------------------   -----------------
gCP correction             0.092615464
------------------   -----------------

-------------------------   --------------------
FINAL SINGLE POINT ENERGY     -2637.654482874839
-------------------------   --------------------

                                *** OPTIMIZATION RUN DONE ***

                            ***************************************
                            *     ORCA property calculations      *
                            ***************************************

                                    ---------------------
                                    Active property flags
                                    ---------------------
   (+) Dipole Moment


------------------------------------------------------------------------------
                       ORCA ELECTRIC PROPERTIES CALCULATION
------------------------------------------------------------------------------

Dipole Moment Calculation                       ... on
Quadrupole Moment Calculation                   ... off
Polarizability Calculation                      ... off
GBWName                                         ... LowT.gbw
Electron density                                ... LowT.scfp
The origin for moment calculation is the CENTER OF MASS  = (43.321541, 18.572185 20.437652)

-------------
DIPOLE MOMENT
-------------
                                X             Y             Z
Electronic contribution:      2.06628      -3.42828       0.80894
Nuclear contribution   :      0.50794       0.72427       1.71023
                        -----------------------------------------
Total Dipole Moment    :      2.57422      -2.70401       2.51917
                        -----------------------------------------
Magnitude (a.u.)       :      4.50383
Magnitude (Debye)      :     11.44783



--------------------
Rotational spectrum 
--------------------
 
Rotational constants in cm-1:     0.006254     0.006000     0.004188 
Rotational constants in MHz :   187.480139   179.863810   125.556354 

 Dipole components along the rotational axes: 
x,y,z [a.u.] :     1.019354     4.318260     0.773322 
x,y,z [Debye]:     2.590992    10.976145     1.965629 

 

Timings for individual modules:

Sum of individual times         ...     3591.116 sec (=  59.852 min)
GTO integral calculation        ...       17.685 sec (=   0.295 min)   0.5 %
SCF iterations                  ...     3041.932 sec (=  50.699 min)  84.7 %
SCF Gradient evaluation         ...      517.137 sec (=   8.619 min)  14.4 %
Geometry relaxation             ...       14.361 sec (=   0.239 min)   0.4 %
                             ****ORCA TERMINATED NORMALLY****
TOTAL RUN TIME: 0 days 1 hours 0 minutes 2 seconds 777 msec
